TITLE = ""
VARIABLES ="simulation time, " "Aqueous Volumetric Flux Rate (1)" "Aqueous Volumetric Flux Integral (1)" "Conservation Component Species Flux (total_cr6) Rate (2)" "Conservation Component Species Flux (total_cr6) Integral (2)"
ZONE T="Reference Node Variables" F=POINT
2.014000E+03 -9.899973E+02 -2.710465E-06 0.000000E+00 0.000000E+00 
2.014000E+03 -9.887877E+02 -6.094406E-06 1.266881E-11 4.335665E-20 
2.014000E+03 -9.872999E+02 -1.031797E-05 2.850483E-11 1.652972E-19 
2.014000E+03 -9.854820E+02 -1.558770E-05 4.829984E-11 4.235741E-19 
2.014000E+03 -9.832655E+02 -2.216005E-05 7.304360E-11 9.118126E-19 
2.014000E+03 -9.805734E+02 -3.035299E-05 1.039733E-10 1.780536E-18 
2.014000E+03 -9.773198E+02 -4.056019E-05 1.426354E-10 3.270231E-18 
2.014000E+03 -9.734113E+02 -5.326816E-05 1.909630E-10 5.763270E-18 
2.014000E+03 -9.687508E+02 -6.907707E-05 2.513725E-10 9.865384E-18 
2.014000E+03 -9.632441E+02 -8.872588E-05 3.268843E-10 1.653336E-17 
2.014000E+03 -9.568094E+02 -1.131228E-04 4.212740E-10 2.727510E-17 
2.014000E+03 -9.493912E+02 -1.433826E-04 5.392611E-10 4.446285E-17 
2.014000E+03 -9.409784E+02 -1.808721E-04 6.867447E-10 7.182342E-17 
2.014000E+03 -9.316241E+02 -2.272681E-04 8.710989E-10 1.152052E-16 
2.014000E+03 -9.214666E+02 -2.846308E-04 1.101541E-09 1.837778E-16 
2.014000E+03 -9.107435E+02 -3.554997E-04 1.389594E-09 2.919082E-16 
2.014000E+03 -8.997916E+02 -4.430207E-04 1.749658E-09 4.620940E-16 
2.014000E+03 -8.890243E+02 -5.511127E-04 2.199737E-09 7.295490E-16 
2.014000E+03 -8.788790E+02 -6.846858E-04 2.762333E-09 1.149372E-15 
2.014000E+03 -8.697383E+02 -8.499157E-04 3.465575E-09 1.807750E-15 
2.014000E+03 -8.618427E+02 -1.054578E-03 4.344620E-09 2.839470E-15 
2.014000E+03 -8.552257E+02 -1.308442E-03 5.443418E-09 4.455285E-15 
2.014000E+03 -8.497026E+02 -1.623722E-03 6.816900E-09 6.984682E-15 
2.014000E+03 -8.449281E+02 -2.015608E-03 8.533730E-09 1.094271E-14 
2.014000E+03 -8.405014E+02 -2.502900E-03 1.067973E-08 1.713442E-14 
2.014000E+03 -8.360754E+02 -3.108806E-03 1.336218E-08 2.681803E-14 
2.014000E+03 -8.314290E+02 -3.861980E-03 1.671515E-08 4.195993E-14 
2.014000E+03 -8.264890E+02 -4.797854E-03 2.090622E-08 6.563305E-14 
2.014000E+03 -8.213167E+02 -5.960375E-03 2.614485E-08 1.026394E-13 
2.014000E+03 -8.162213E+02 -7.404511E-03 3.269280E-08 1.604826E-13 
2.014000E+03 -8.114764E+02 -9.199187E-03 4.087721E-08 2.508874E-13 
2.014000E+03 -8.073131E+02 -1.143102E-02 5.110692E-08 3.921736E-13 
2.014000E+03 -8.038847E+02 -1.420897E-02 6.389277E-08 6.129649E-13 
2.014000E+03 -8.012309E+02 -1.766994E-02 7.987311E-08 9.579821E-13 
2.014000E+03 -7.992727E+02 -2.198558E-02 9.984544E-08 1.497093E-12 
2.014000E+03 -7.978450E+02 -2.737049E-02 1.248061E-07 2.339450E-12 
2.014000E+03 -7.967532E+02 -3.409242E-02 1.559994E-07 3.655563E-12 
2.014000E+03 -7.958282E+02 -4.248508E-02 1.949795E-07 5.711781E-12 
2.014000E+03 -7.949576E+02 -5.296443E-02 2.436871E-07 8.924130E-12 
2.014000E+03 -7.940892E+02 -6.604931E-02 3.045444E-07 1.394237E-11 
2.014000E+03 -7.932182E+02 -8.238746E-02 3.805753E-07 2.178119E-11 
2.014000E+03 -7.923800E+02 -1.027886E-01 4.755528E-07 3.402507E-11 
2.014000E+03 -7.917539E+02 -1.282698E-01 5.941849E-07 5.314789E-11 
2.014000E+03 -7.913748E+02 -1.601061E-01 7.423462E-07 8.301181E-11 
2.014000E+03 -7.910407E+02 -1.998847E-01 9.273691E-07 1.296458E-10 
2.014000E+03 -7.907164E+02 -2.495875E-01 1.158413E-06 2.024613E-10 
2.014000E+03 -7.904071E+02 -3.116917E-01 1.446930E-06 3.161502E-10 
2.014000E+03 -7.901245E+02 -3.892943E-01 1.807273E-06 4.936526E-10 
2.014001E+03 -7.898781E+02 -4.862672E-01 2.257464E-06 7.708003E-10 
2.014001E+03 -7.896722E+02 -6.074517E-01 2.820198E-06 1.203593E-09 
2.014001E+03 -7.895058E+02 -7.589005E-01 3.524121E-06 1.879616E-09 
2.014001E+03 -7.893733E+02 -9.481797E-01 4.405438E-06 2.935970E-09 
2.014001E+03 -7.892675E+02 -1.184747E+00 5.509895E-06 4.587452E-09 
2.014002E+03 -7.891818E+02 -1.480424E+00 6.895145E-06 7.170806E-09 
2.014002E+03 -7.891117E+02 -1.849987E+00 8.633537E-06 1.121414E-08 
2.014003E+03 -7.890544E+02 -2.311908E+00 1.081536E-05 1.754556E-08 
2.014004E+03 -7.890085E+02 -2.889275E+00 1.355267E-05 2.746290E-08 
2.014005E+03 -7.889728E+02 -3.610952E+00 1.698403E-05 4.299826E-08 
2.014006E+03 -7.889457E+02 -4.513017E+00 2.128037E-05 6.732980E-08 
2.014007E+03 -7.889259E+02 -5.640569E+00 2.665256E-05 1.054223E-07 
2.014009E+03 -7.889120E+02 -7.049985E+00 3.336105E-05 1.650228E-07 
2.014011E+03 -7.889024E+02 -8.811733E+00 4.172796E-05 2.582082E-07 
2.014014E+03 -7.888963E+02 -1.097161E+01 5.215104E-05 4.009900E-07 
2.014017E+03 -7.888929E+02 -1.313148E+01 6.486993E-05 5.785942E-07 
2.014019E+03 -7.888910E+02 -1.529135E+01 7.754121E-05 7.908904E-07 
2.014022E+03 -7.888899E+02 -1.745121E+01 9.016393E-05 1.037746E-06 
2.014025E+03 -7.888892E+02 -1.961107E+01 1.027383E-04 1.319028E-06 
2.014028E+03 -7.888889E+02 -2.177093E+01 1.152651E-04 1.634607E-06 
2.014030E+03 -7.888887E+02 -2.393079E+01 1.277451E-04 1.984354E-06 
2.014033E+03 -7.888886E+02 -2.609065E+01 1.401791E-04 2.368143E-06 
2.014036E+03 -7.888886E+02 -2.825051E+01 1.525679E-04 2.785851E-06 
2.014039E+03 -7.888886E+02 -3.041037E+01 1.649121E-04 3.237356E-06 
2.014041E+03 -7.888887E+02 -3.257023E+01 1.772124E-04 3.722537E-06 
2.014044E+03 -7.888888E+02 -3.473009E+01 1.894693E-04 4.241275E-06 
2.014047E+03 -7.888889E+02 -3.688995E+01 2.016832E-04 4.793454E-06 
2.014049E+03 -7.888890E+02 -3.904981E+01 2.138545E-04 5.378956E-06 
2.014052E+03 -7.888891E+02 -4.120967E+01 2.259837E-04 5.997666E-06 
2.014055E+03 -7.888891E+02 -4.336953E+01 2.380711E-04 6.649469E-06 
2.014058E+03 -7.888892E+02 -4.552939E+01 2.501168E-04 7.334251E-06 
2.014060E+03 -7.888893E+02 -4.768925E+01 2.621213E-04 8.051900E-06 
2.014063E+03 -7.888894E+02 -4.984912E+01 2.740848E-04 8.802303E-06 
2.014066E+03 -7.888895E+02 -5.200898E+01 2.860074E-04 9.585349E-06 
2.014069E+03 -7.888896E+02 -5.416884E+01 2.978894E-04 1.040093E-05 
2.014071E+03 -7.888896E+02 -5.632870E+01 3.097310E-04 1.124892E-05 
2.014074E+03 -7.888897E+02 -5.848856E+01 3.215324E-04 1.212923E-05 
2.014077E+03 -7.888898E+02 -6.064843E+01 3.332937E-04 1.304174E-05 
2.014080E+03 -7.888898E+02 -6.280829E+01 3.450152E-04 1.398634E-05 
2.014082E+03 -7.888899E+02 -6.496815E+01 3.566970E-04 1.496292E-05 
2.014085E+03 -7.888899E+02 -6.700473E+01 3.683396E-04 1.591382E-05 
2.014088E+03 -7.825624E+02 -6.914727E+01 3.949289E-04 1.699508E-05 
2.014090E+03 -7.764747E+02 -7.127314E+01 4.199765E-04 1.814491E-05 
2.014093E+03 -7.704378E+02 -7.338249E+01 4.433978E-04 1.935887E-05 
2.014096E+03 -7.644270E+02 -7.547537E+01 4.656929E-04 2.063386E-05 
2.014099E+03 -7.584341E+02 -7.755185E+01 4.872096E-04 2.196777E-05 
2.014101E+03 -7.524550E+02 -7.961196E+01 5.081805E-04 2.335909E-05 
2.014104E+03 -7.464873E+02 -8.165573E+01 5.287613E-04 2.480676E-05 
2.014107E+03 -7.405295E+02 -8.368319E+01 5.490587E-04 2.631000E-05 
2.014110E+03 -7.345807E+02 -8.569437E+01 5.691470E-04 2.786824E-05 
2.014112E+03 -7.286399E+02 -8.768927E+01 5.890796E-04 2.948106E-05 
2.014115E+03 -7.227065E+02 -8.966794E+01 6.088951E-04 3.114812E-05 
2.014118E+03 -7.167801E+02 -9.163037E+01 6.286223E-04 3.286919E-05 
2.014121E+03 -7.108602E+02 -9.357660E+01 6.482830E-04 3.464410E-05 
2.014123E+03 -7.049464E+02 -9.550664E+01 6.678938E-04 3.647269E-05 
2.014126E+03 -6.990385E+02 -9.742050E+01 6.874676E-04 3.835487E-05 
2.014129E+03 -6.931362E+02 -9.931821E+01 7.070148E-04 4.029057E-05 
2.014131E+03 -6.872392E+02 -1.011998E+02 7.265435E-04 4.227974E-05 
2.014134E+03 -6.813474E+02 -1.030652E+02 7.460606E-04 4.432234E-05 
2.014137E+03 -6.754604E+02 -1.049145E+02 7.655714E-04 4.641836E-05 
2.014140E+03 -6.695782E+02 -1.067477E+02 7.850805E-04 4.856780E-05 
2.014142E+03 -6.637006E+02 -1.085648E+02 8.062405E-04 5.077516E-05 
2.014145E+03 -6.578273E+02 -1.103659E+02 8.307243E-04 5.304956E-05 
2.014148E+03 -6.519584E+02 -1.121508E+02 8.553321E-04 5.539133E-05 
2.014151E+03 -6.460936E+02 -1.139197E+02 8.800660E-04 5.780082E-05 
2.014153E+03 -6.402328E+02 -1.156726E+02 9.049276E-04 6.027838E-05 
2.014156E+03 -6.343759E+02 -1.174094E+02 9.299182E-04 6.282436E-05 
2.014159E+03 -6.285227E+02 -1.191302E+02 9.550389E-04 6.543911E-05 
2.014162E+03 -6.226733E+02 -1.208350E+02 9.802901E-04 6.812300E-05 
2.014162E+03 -6.225609E+02 -1.208677E+02 9.957408E-04 6.817528E-05 
2.014164E+03 -6.289346E+02 -1.225896E+02 8.518287E-04 7.050746E-05 
2.014167E+03 -6.342776E+02 -1.243262E+02 7.808605E-04 7.264534E-05 
2.014170E+03 -6.394629E+02 -1.260769E+02 7.240158E-04 7.462759E-05 
2.014173E+03 -6.445962E+02 -1.278417E+02 6.771621E-04 7.648156E-05 
2.014175E+03 -6.497130E+02 -1.296206E+02 6.374229E-04 7.822673E-05 
2.014178E+03 -6.548321E+02 -1.314134E+02 6.028641E-04 7.987728E-05 
2.014181E+03 -6.599658E+02 -1.332203E+02 5.721747E-04 8.144381E-05 
2.014184E+03 -6.651248E+02 -1.350413E+02 5.444467E-04 8.293442E-05 
2.014186E+03 -6.703200E+02 -1.368765E+02 5.190363E-04 8.435547E-05 
2.014189E+03 -6.755643E+02 -1.387261E+02 4.954769E-04 8.571201E-05 
2.014192E+03 -6.808762E+02 -1.405903E+02 4.734250E-04 8.700817E-05 
2.014194E+03 -6.862858E+02 -1.424692E+02 4.526262E-04 8.824740E-05 
2.014197E+03 -6.918573E+02 -1.443634E+02 4.329013E-04 8.943262E-05 
2.014200E+03 -6.978454E+02 -1.462740E+02 4.141897E-04 9.056661E-05 
2.014203E+03 -7.036340E+02 -1.482005E+02 3.962373E-04 9.165144E-05 
2.014205E+03 -7.087847E+02 -1.501410E+02 3.786245E-04 9.268806E-05 
2.014208E+03 -7.141097E+02 -1.520961E+02 3.612069E-04 9.367699E-05 
2.014211E+03 -7.201903E+02 -1.540679E+02 3.437001E-04 9.461799E-05 
2.014214E+03 -7.248286E+02 -1.560524E+02 3.266521E-04 9.551232E-05 
2.014216E+03 -7.294815E+02 -1.580496E+02 3.130106E-04 9.636929E-05 
2.014219E+03 -7.341310E+02 -1.600595E+02 3.073269E-04 9.721071E-05 
2.014222E+03 -7.387782E+02 -1.620822E+02 3.018199E-04 9.803705E-05 
2.014225E+03 -7.434236E+02 -1.641176E+02 2.964660E-04 9.884873E-05 
2.014227E+03 -7.480675E+02 -1.661657E+02 2.912437E-04 9.964611E-05 
2.014230E+03 -7.527101E+02 -1.682265E+02 2.861336E-04 1.004295E-04 
2.014233E+03 -7.573515E+02 -1.703000E+02 2.811192E-04 1.011992E-04 
2.014236E+03 -7.619918E+02 -1.723862E+02 2.761856E-04 1.019553E-04 
2.014238E+03 -7.666311E+02 -1.744851E+02 2.713195E-04 1.026981E-04 
2.014241E+03 -7.712696E+02 -1.765968E+02 2.665091E-04 1.034278E-04 
2.014244E+03 -7.759073E+02 -1.787211E+02 2.617435E-04 1.041444E-04 
2.014247E+03 -7.805442E+02 -1.808581E+02 2.570130E-04 1.048481E-04 
2.014247E+03 -7.806425E+02 -1.809035E+02 2.593255E-04 1.048632E-04 
2.014249E+03 -7.815093E+02 -1.830431E+02 1.861318E-04 1.053728E-04 
2.014252E+03 -7.814999E+02 -1.851827E+02 1.250551E-04 1.057151E-04 
2.014255E+03 -7.813158E+02 -1.873219E+02 7.312439E-05 1.059154E-04 
2.014258E+03 -7.810092E+02 -1.894602E+02 2.832820E-05 1.059929E-04 
2.014260E+03 -7.806505E+02 -1.915975E+02 0.000000E+00 1.059929E-04 
2.014263E+03 -7.802621E+02 -1.937337E+02 0.000000E+00 1.059929E-04 
2.014266E+03 -7.798540E+02 -1.958688E+02 0.000000E+00 1.059929E-04 
2.014268E+03 -7.794315E+02 -1.980028E+02 0.000000E+00 1.059929E-04 
2.014271E+03 -7.790248E+02 -2.001357E+02 0.000000E+00 1.059929E-04 
2.014274E+03 -7.785974E+02 -2.022673E+02 0.000000E+00 1.059929E-04 
2.014277E+03 -7.781554E+02 -2.043978E+02 0.000000E+00 1.059929E-04 
2.014279E+03 -7.777036E+02 -2.065270E+02 0.000000E+00 1.059929E-04 
2.014282E+03 -7.772444E+02 -2.086550E+02 0.000000E+00 1.059929E-04 
2.014285E+03 -7.767795E+02 -2.107817E+02 0.000000E+00 1.059929E-04 
2.014288E+03 -7.763097E+02 -2.129072E+02 0.000000E+00 1.059929E-04 
2.014290E+03 -7.758357E+02 -2.150313E+02 0.000000E+00 1.059929E-04 
2.014293E+03 -7.753580E+02 -2.171541E+02 0.000000E+00 1.059929E-04 
2.014296E+03 -7.748770E+02 -2.192756E+02 0.000000E+00 1.059929E-04 
2.014299E+03 -7.743931E+02 -2.213958E+02 0.000000E+00 1.059929E-04 
2.014301E+03 -7.739066E+02 -2.235146E+02 0.000000E+00 1.059929E-04 
2.014304E+03 -7.734176E+02 -2.256321E+02 0.000000E+00 1.059929E-04 
2.014307E+03 -7.729263E+02 -2.277483E+02 0.000000E+00 1.059929E-04 
2.014310E+03 -7.724331E+02 -2.298631E+02 0.000000E+00 1.059929E-04 
2.014312E+03 -7.719379E+02 -2.319765E+02 0.000000E+00 1.059929E-04 
2.014315E+03 -7.714411E+02 -2.340886E+02 0.000000E+00 1.059929E-04 
2.014318E+03 -7.709426E+02 -2.361993E+02 0.000000E+00 1.059929E-04 
2.014320E+03 -7.704461E+02 -2.383087E+02 0.000000E+00 1.059929E-04 
2.014323E+03 -7.699531E+02 -2.404167E+02 0.000000E+00 1.059929E-04 
2.014326E+03 -7.694572E+02 -2.425234E+02 0.000000E+00 1.059929E-04 
2.014329E+03 -7.689585E+02 -2.446287E+02 0.000000E+00 1.059929E-04 
2.014329E+03 -7.689405E+02 -2.446719E+02 0.000000E+00 1.059929E-04 
2.014332E+03 -7.674397E+02 -2.467731E+02 0.000000E+00 1.059929E-04 
2.014334E+03 -7.648053E+02 -2.488670E+02 0.000000E+00 1.059929E-04 
2.014337E+03 -7.619389E+02 -2.509531E+02 0.000000E+00 1.059929E-04 
2.014340E+03 -7.589824E+02 -2.530310E+02 0.000000E+00 1.059929E-04 
2.014342E+03 -7.559876E+02 -2.551008E+02 0.000000E+00 1.059929E-04 
2.014345E+03 -7.529943E+02 -2.571624E+02 0.000000E+00 1.059929E-04 
2.014348E+03 -7.498644E+02 -2.592154E+02 0.000000E+00 1.059929E-04 
2.014351E+03 -7.465973E+02 -2.612595E+02 0.000000E+00 1.059929E-04 
2.014353E+03 -7.435409E+02 -2.632952E+02 0.000000E+00 1.059929E-04 
2.014356E+03 -7.404881E+02 -2.653225E+02 0.000000E+00 1.059929E-04 
2.014359E+03 -7.374290E+02 -2.673415E+02 0.000000E+00 1.059929E-04 
2.014362E+03 -7.343628E+02 -2.693521E+02 0.000000E+00 1.059929E-04 
2.014364E+03 -7.312898E+02 -2.713543E+02 0.000000E+00 1.059929E-04 
2.014367E+03 -7.282106E+02 -2.733480E+02 0.000000E+00 1.059929E-04 
2.014370E+03 -7.251259E+02 -2.753333E+02 0.000000E+00 1.059929E-04 
2.014373E+03 -7.220361E+02 -2.773101E+02 0.000000E+00 1.059929E-04 
2.014375E+03 -7.189417E+02 -2.792785E+02 0.000000E+00 1.059929E-04 
2.014378E+03 -7.158429E+02 -2.812383E+02 0.000000E+00 1.059929E-04 
2.014381E+03 -7.127402E+02 -2.831897E+02 0.000000E+00 1.059929E-04 
2.014384E+03 -7.096335E+02 -2.851326E+02 0.000000E+00 1.059929E-04 
2.014386E+03 -7.065233E+02 -2.870669E+02 0.000000E+00 1.059929E-04 
2.014389E+03 -7.034095E+02 -2.889928E+02 0.000000E+00 1.059929E-04 
2.014392E+03 -7.002924E+02 -2.909101E+02 0.000000E+00 1.059929E-04 
2.014394E+03 -6.971719E+02 -2.928188E+02 0.000000E+00 1.059929E-04 
2.014397E+03 -6.940481E+02 -2.947190E+02 0.000000E+00 1.059929E-04 
2.014400E+03 -6.909211E+02 -2.966106E+02 0.000000E+00 1.059929E-04 
2.014403E+03 -6.877908E+02 -2.984937E+02 0.000000E+00 1.059929E-04 
2.014405E+03 -6.846573E+02 -3.003682E+02 0.000000E+00 1.059929E-04 
2.014408E+03 -6.815205E+02 -3.022341E+02 0.000000E+00 1.059929E-04 
2.014411E+03 -6.783804E+02 -3.040914E+02 0.000000E+00 1.059929E-04 
2.014414E+03 -6.752403E+02 -3.059401E+02 0.000000E+00 1.059929E-04 
2.014414E+03 -6.751622E+02 -3.059794E+02 0.000000E+00 1.059929E-04 
2.014416E+03 -6.774119E+02 -3.078340E+02 0.000000E+00 1.059929E-04 
2.014419E+03 -6.806035E+02 -3.096974E+02 0.000000E+00 1.059929E-04 
2.014422E+03 -6.840383E+02 -3.115702E+02 0.000000E+00 1.059929E-04 
2.014425E+03 -6.875735E+02 -3.134527E+02 0.000000E+00 1.059929E-04 
2.014427E+03 -6.911618E+02 -3.153450E+02 0.000000E+00 1.059929E-04 
2.014430E+03 -6.947847E+02 -3.172472E+02 0.000000E+00 1.059929E-04 
2.014433E+03 -6.984405E+02 -3.191594E+02 0.000000E+00 1.059929E-04 
2.014436E+03 -7.021301E+02 -3.210817E+02 0.000000E+00 1.059929E-04 
2.014438E+03 -7.057454E+02 -3.230140E+02 0.000000E+00 1.059929E-04 
2.014441E+03 -7.093105E+02 -3.249560E+02 0.000000E+00 1.059929E-04 
2.014444E+03 -7.129460E+02 -3.269079E+02 0.000000E+00 1.059929E-04 
2.014447E+03 -7.166201E+02 -3.288699E+02 0.000000E+00 1.059929E-04 
2.014449E+03 -7.203047E+02 -3.308420E+02 0.000000E+00 1.059929E-04 
2.014452E+03 -7.239950E+02 -3.328242E+02 0.000000E+00 1.059929E-04 
2.014455E+03 -7.276893E+02 -3.348165E+02 0.000000E+00 1.059929E-04 
2.014458E+03 -7.313866E+02 -3.368189E+02 0.000000E+00 1.059929E-04 
2.014460E+03 -7.350862E+02 -3.388315E+02 0.000000E+00 1.059929E-04 
2.014463E+03 -7.387878E+02 -3.408542E+02 0.000000E+00 1.059929E-04 
2.014466E+03 -7.424910E+02 -3.428870E+02 0.000000E+00 1.059929E-04 
2.014468E+03 -7.461954E+02 -3.449300E+02 0.000000E+00 1.059929E-04 
2.014471E+03 -7.499010E+02 -3.469831E+02 0.000000E+00 1.059929E-04 
2.014474E+03 -7.536074E+02 -3.490463E+02 0.000000E+00 1.059929E-04 
2.014477E+03 -7.573146E+02 -3.511198E+02 0.000000E+00 1.059929E-04 
2.014479E+03 -7.610225E+02 -3.532033E+02 0.000000E+00 1.059929E-04 
2.014482E+03 -7.647309E+02 -3.552970E+02 0.000000E+00 1.059929E-04 
2.014485E+03 -7.684398E+02 -3.574009E+02 0.000000E+00 1.059929E-04 
2.014488E+03 -7.721491E+02 -3.595149E+02 0.000000E+00 1.059929E-04 
2.014490E+03 -7.758588E+02 -3.616391E+02 0.000000E+00 1.059929E-04 
2.014493E+03 -7.795688E+02 -3.637735E+02 0.000000E+00 1.059929E-04 
2.014496E+03 -7.832791E+02 -3.659180E+02 0.000000E+00 1.059929E-04 
2.014496E+03 -7.833540E+02 -3.659620E+02 0.000000E+00 1.059929E-04 
2.014499E+03 -7.833772E+02 -3.681068E+02 0.000000E+00 1.059929E-04 
2.014501E+03 -7.841375E+02 -3.702537E+02 0.000000E+00 1.059929E-04 
2.014504E+03 -7.851013E+02 -3.724031E+02 0.000000E+00 1.059929E-04 
2.014507E+03 -7.861655E+02 -3.745556E+02 0.000000E+00 1.059929E-04 
2.014510E+03 -7.872708E+02 -3.767110E+02 0.000000E+00 1.059929E-04 
2.014512E+03 -7.883946E+02 -3.788695E+02 0.000000E+00 1.059929E-04 
2.014515E+03 -7.895315E+02 -3.810311E+02 0.000000E+00 1.059929E-04 
2.014518E+03 -7.906787E+02 -3.831959E+02 0.000000E+00 1.059929E-04 
2.014521E+03 -7.918343E+02 -3.853638E+02 0.000000E+00 1.059929E-04 
2.014523E+03 -7.929968E+02 -3.875349E+02 0.000000E+00 1.059929E-04 
2.014526E+03 -7.941649E+02 -3.897092E+02 0.000000E+00 1.059929E-04 
2.014529E+03 -7.953378E+02 -3.918867E+02 0.000000E+00 1.059929E-04 
2.014531E+03 -7.965145E+02 -3.940675E+02 0.000000E+00 1.059929E-04 
2.014534E+03 -7.976944E+02 -3.962514E+02 0.000000E+00 1.059929E-04 
2.014537E+03 -7.988771E+02 -3.984386E+02 0.000000E+00 1.059929E-04 
2.014540E+03 -8.000621E+02 -4.006291E+02 0.000000E+00 1.059929E-04 
2.014542E+03 -8.012491E+02 -4.028228E+02 0.000000E+00 1.059929E-04 
2.014545E+03 -8.024379E+02 -4.050197E+02 0.000000E+00 1.059929E-04 
2.014548E+03 -8.036282E+02 -4.072200E+02 0.000000E+00 1.059929E-04 
2.014551E+03 -8.048198E+02 -4.094234E+02 0.000000E+00 1.059929E-04 
2.014553E+03 -8.060127E+02 -4.116302E+02 0.000000E+00 1.059929E-04 
2.014556E+03 -8.072067E+02 -4.138402E+02 0.000000E+00 1.059929E-04 
2.014559E+03 -8.084017E+02 -4.160535E+02 0.000000E+00 1.059929E-04 
2.014562E+03 -8.095978E+02 -4.182700E+02 0.000000E+00 1.059929E-04 
2.014564E+03 -8.107947E+02 -4.204899E+02 0.000000E+00 1.059929E-04 
2.014567E+03 -8.119926E+02 -4.227130E+02 0.000000E+00 1.059929E-04 
2.014570E+03 -8.131913E+02 -4.249394E+02 0.000000E+00 1.059929E-04 
2.014573E+03 -8.143909E+02 -4.271691E+02 0.000000E+00 1.059929E-04 
2.014575E+03 -8.155914E+02 -4.294020E+02 0.000000E+00 1.059929E-04 
2.014578E+03 -8.167928E+02 -4.316383E+02 0.000000E+00 1.059929E-04 
2.014581E+03 -8.179952E+02 -4.338778E+02 0.000000E+00 1.059929E-04 
2.014581E+03 -8.180193E+02 -4.339254E+02 0.000000E+00 1.059929E-04 
2.014584E+03 -8.190208E+02 -4.361677E+02 0.000000E+00 1.059929E-04 
2.014586E+03 -8.214157E+02 -4.384166E+02 0.000000E+00 1.059929E-04 
2.014589E+03 -8.241885E+02 -4.406732E+02 0.000000E+00 1.059929E-04 
2.014592E+03 -8.271467E+02 -4.429378E+02 0.000000E+00 1.059929E-04 
2.014595E+03 -8.302166E+02 -4.452108E+02 0.000000E+00 1.059929E-04 
2.014597E+03 -8.333615E+02 -4.474924E+02 0.000000E+00 1.059929E-04 
2.014600E+03 -8.365602E+02 -4.497828E+02 0.000000E+00 1.059929E-04 
2.014603E+03 -8.397991E+02 -4.520820E+02 0.000000E+00 1.059929E-04 
2.014605E+03 -8.430688E+02 -4.543902E+02 0.000000E+00 1.059929E-04 
2.014608E+03 -8.463625E+02 -4.567074E+02 0.000000E+00 1.059929E-04 
2.014611E+03 -8.496753E+02 -4.590337E+02 0.000000E+00 1.059929E-04 
2.014614E+03 -8.530033E+02 -4.613691E+02 0.000000E+00 1.059929E-04 
2.014616E+03 -8.563437E+02 -4.637136E+02 0.000000E+00 1.059929E-04 
2.014619E+03 -8.596941E+02 -4.660674E+02 0.000000E+00 1.059929E-04 
2.014622E+03 -8.630530E+02 -4.684303E+02 0.000000E+00 1.059929E-04 
2.014625E+03 -8.664189E+02 -4.708024E+02 0.000000E+00 1.059929E-04 
2.014627E+03 -8.697907E+02 -4.731837E+02 0.000000E+00 1.059929E-04 
2.014630E+03 -8.731675E+02 -4.755744E+02 0.000000E+00 1.059929E-04 
2.014633E+03 -8.765488E+02 -4.779742E+02 0.000000E+00 1.059929E-04 
2.014636E+03 -8.799338E+02 -4.803833E+02 0.000000E+00 1.059929E-04 
2.014638E+03 -8.833222E+02 -4.828017E+02 0.000000E+00 1.059929E-04 
2.014641E+03 -8.867136E+02 -4.852294E+02 0.000000E+00 1.059929E-04 
2.014644E+03 -8.901076E+02 -4.876664E+02 0.000000E+00 1.059929E-04 
2.014647E+03 -8.935041E+02 -4.901127E+02 0.000000E+00 1.059929E-04 
2.014649E+03 -8.969027E+02 -4.925683E+02 0.000000E+00 1.059929E-04 
2.014652E+03 -9.003033E+02 -4.950332E+02 0.000000E+00 1.059929E-04 
2.014655E+03 -9.037058E+02 -4.975074E+02 0.000000E+00 1.059929E-04 
2.014657E+03 -9.071099E+02 -4.999909E+02 0.000000E+00 1.059929E-04 
2.014660E+03 -9.105157E+02 -5.024838E+02 0.000000E+00 1.059929E-04 
2.014663E+03 -9.139228E+02 -5.049860E+02 0.000000E+00 1.059929E-04 
2.014666E+03 -9.173314E+02 -5.074975E+02 0.000000E+00 1.059929E-04 
2.014666E+03 -9.174034E+02 -5.075508E+02 0.000000E+00 1.059929E-04 
2.014668E+03 -9.196431E+02 -5.100687E+02 4.648958E-04 1.072657E-04 
2.014671E+03 -9.226864E+02 -5.125948E+02 7.978095E-04 1.094500E-04 
2.014674E+03 -9.259678E+02 -5.151300E+02 1.032628E-03 1.122772E-04 
2.014677E+03 -9.293633E+02 -5.176745E+02 1.215529E-03 1.156051E-04 
2.014679E+03 -9.328266E+02 -5.202284E+02 1.366418E-03 1.193462E-04 
2.014682E+03 -9.363352E+02 -5.227919E+02 1.495399E-03 1.234404E-04 
2.014685E+03 -9.398766E+02 -5.253652E+02 1.608326E-03 1.278437E-04 
2.014688E+03 -9.434429E+02 -5.279482E+02 1.708936E-03 1.325225E-04 
2.014690E+03 -9.470287E+02 -5.305410E+02 1.799796E-03 1.374501E-04 
2.014693E+03 -9.506300E+02 -5.331437E+02 1.882751E-03 1.426048E-04 
2.014696E+03 -9.542442E+02 -5.357563E+02 1.959181E-03 1.479687E-04 
2.014699E+03 -9.578689E+02 -5.383788E+02 2.030143E-03 1.535270E-04 
2.014701E+03 -9.615025E+02 -5.410112E+02 2.096458E-03 1.592668E-04 
2.014704E+03 -9.651437E+02 -5.436536E+02 2.158779E-03 1.651772E-04 
2.014707E+03 -9.687554E+02 -5.463059E+02 2.225412E-03 1.712700E-04 
2.014710E+03 -9.721521E+02 -5.489676E+02 2.308023E-03 1.775890E-04 
2.014712E+03 -9.754858E+02 -5.516383E+02 2.387955E-03 1.841269E-04 
2.014715E+03 -9.789339E+02 -5.543185E+02 2.463617E-03 1.908719E-04 
2.014718E+03 -9.824260E+02 -5.570082E+02 2.535324E-03 1.978133E-04 
2.014721E+03 -9.859455E+02 -5.597076E+02 2.603578E-03 2.049415E-04 
2.014723E+03 -9.894849E+02 -5.624166E+02 2.668812E-03 2.122483E-04 
2.014726E+03 -9.930398E+02 -5.651354E+02 2.731372E-03 2.197264E-04 
2.014729E+03 -9.966073E+02 -5.678640E+02 2.791531E-03 2.273692E-04 
2.014731E+03 -1.000186E+03 -5.706024E+02 2.942543E-03 2.354254E-04 
2.014734E+03 -1.003773E+03 -5.733505E+02 3.113420E-03 2.439495E-04 
2.014737E+03 -1.007369E+03 -5.761086E+02 3.278139E-03 2.529245E-04 
2.014740E+03 -1.010972E+03 -5.788764E+02 3.437118E-03 2.623348E-04 
2.014742E+03 -1.014581E+03 -5.816542E+02 3.590723E-03 2.721657E-04 
2.014745E+03 -1.018197E+03 -5.844419E+02 3.739272E-03 2.824033E-04 
2.014748E+03 -1.021817E+03 -5.872395E+02 3.883047E-03 2.930345E-04 
2.014748E+03 -1.021889E+03 -5.872970E+02 3.894398E-03 2.932536E-04 
2.014751E+03 -1.024311E+03 -5.901014E+02 3.557142E-03 3.029925E-04 
2.014753E+03 -1.026286E+03 -5.929112E+02 3.414957E-03 3.123421E-04 
2.014756E+03 -1.028143E+03 -5.957261E+02 3.355315E-03 3.215285E-04 
2.014759E+03 -1.029949E+03 -5.985459E+02 3.338538E-03 3.306689E-04 
2.014762E+03 -1.031726E+03 -6.013707E+02 3.346957E-03 3.398324E-04 
2.014764E+03 -1.033486E+03 -6.042002E+02 3.371536E-03 3.490631E-04 
2.014767E+03 -1.035233E+03 -6.070345E+02 3.407122E-03 3.583913E-04 
2.014770E+03 -1.036972E+03 -6.098736E+02 3.450522E-03 3.678383E-04 
2.014773E+03 -1.038705E+03 -6.127174E+02 3.499616E-03 3.774198E-04 
2.014775E+03 -1.040433E+03 -6.155659E+02 3.552927E-03 3.871472E-04 
2.014778E+03 -1.042158E+03 -6.184192E+02 3.609380E-03 3.970291E-04 
2.014781E+03 -1.043880E+03 -6.212772E+02 3.668168E-03 4.070720E-04 
2.014784E+03 -1.045600E+03 -6.241399E+02 3.728670E-03 4.172805E-04 
2.014786E+03 -1.047318E+03 -6.270073E+02 3.790401E-03 4.276581E-04 
2.014789E+03 -1.049035E+03 -6.298794E+02 3.852975E-03 4.382070E-04 
2.014792E+03 -1.050752E+03 -6.327562E+02 3.916083E-03 4.489286E-04 
2.014794E+03 -1.052467E+03 -6.356377E+02 3.979475E-03 4.598238E-04 
2.014797E+03 -1.054183E+03 -6.385239E+02 4.042948E-03 4.708928E-04 
2.014800E+03 -1.055898E+03 -6.414148E+02 4.106338E-03 4.821354E-04 
2.014803E+03 -1.057613E+03 -6.443104E+02 4.169509E-03 4.935508E-04 
2.014805E+03 -1.059327E+03 -6.472107E+02 4.232352E-03 5.051384E-04 
2.014808E+03 -1.061042E+03 -6.501156E+02 4.294778E-03 5.168969E-04 
2.014811E+03 -1.062758E+03 -6.530253E+02 4.356712E-03 5.288249E-04 
2.014814E+03 -1.064473E+03 -6.559397E+02 4.418097E-03 5.409210E-04 
2.014816E+03 -1.066189E+03 -6.588587E+02 4.478885E-03 5.531835E-04 
2.014819E+03 -1.067905E+03 -6.617825E+02 4.539037E-03 5.656107E-04 
2.014822E+03 -1.069468E+03 -6.647105E+02 4.610605E-03 5.782338E-04 
2.014825E+03 -1.070994E+03 -6.676428E+02 4.685347E-03 5.910616E-04 
2.014827E+03 -1.072501E+03 -6.705791E+02 4.758039E-03 6.040884E-04 
2.014830E+03 -1.074045E+03 -6.735197E+02 4.828506E-03 6.173082E-04 
2.014833E+03 -1.075628E+03 -6.764646E+02 4.897314E-03 6.307163E-04 
2.014833E+03 -1.075648E+03 -6.765271E+02 4.907618E-03 6.310016E-04 
2.014836E+03 -1.078535E+03 -6.794800E+02 4.135425E-03 6.423237E-04 
2.014838E+03 -1.080380E+03 -6.824379E+02 3.641546E-03 6.522938E-04 
2.014841E+03 -1.081977E+03 -6.854002E+02 3.295318E-03 6.613158E-04 
2.014844E+03 -1.083462E+03 -6.883666E+02 3.036223E-03 6.696286E-04 
2.014847E+03 -1.084884E+03 -6.913368E+02 2.832990E-03 6.773849E-04 
2.014849E+03 -1.086264E+03 -6.943108E+02 2.668179E-03 6.846899E-04 
2.014852E+03 -1.087616E+03 -6.972886E+02 2.531313E-03 6.916203E-04 
2.014855E+03 -1.088948E+03 -7.002699E+02 2.415686E-03 6.982341E-04 
2.014858E+03 -1.090263E+03 -7.032549E+02 2.316763E-03 7.045770E-04 
2.014860E+03 -1.091565E+03 -7.062435E+02 2.231335E-03 7.106861E-04 
2.014863E+03 -1.092857E+03 -7.092355E+02 2.157044E-03 7.165918E-04 
2.014866E+03 -1.094140E+03 -7.122311E+02 2.092097E-03 7.223196E-04 
2.014868E+03 -1.095416E+03 -7.152302E+02 2.035094E-03 7.278914E-04 
2.014871E+03 -1.096685E+03 -7.182328E+02 1.984915E-03 7.333258E-04 
2.014874E+03 -1.097950E+03 -7.212388E+02 1.940648E-03 7.386390E-04 
2.014877E+03 -1.099209E+03 -7.242483E+02 1.901541E-03 7.438451E-04 
2.014879E+03 -1.100465E+03 -7.272612E+02 1.866962E-03 7.489566E-04 
2.014882E+03 -1.101717E+03 -7.302775E+02 1.836375E-03 7.539843E-04 
2.014885E+03 -1.102966E+03 -7.332973E+02 1.809325E-03 7.589380E-04 
2.014888E+03 -1.104212E+03 -7.363204E+02 1.785418E-03 7.638262E-04 
2.014890E+03 -1.105456E+03 -7.393470E+02 1.764315E-03 7.686566E-04 
2.014893E+03 -1.106697E+03 -7.423770E+02 1.745721E-03 7.734362E-04 
2.014896E+03 -1.107937E+03 -7.454104E+02 1.729378E-03 7.781709E-04 
2.014899E+03 -1.109175E+03 -7.484471E+02 1.715060E-03 7.828665E-04 
2.014901E+03 -1.110412E+03 -7.514873E+02 1.702569E-03 7.875279E-04 
2.014904E+03 -1.111647E+03 -7.545308E+02 1.691728E-03 7.921596E-04 
2.014907E+03 -1.112881E+03 -7.575777E+02 1.682383E-03 7.967657E-04 
2.014910E+03 -1.114113E+03 -7.606280E+02 1.674396E-03 8.013500E-04 
2.014912E+03 -1.115345E+03 -7.636816E+02 1.667645E-03 8.059157E-04 
2.014915E+03 -1.116576E+03 -7.667386E+02 1.663539E-03 8.104702E-04 
2.014915E+03 -1.116601E+03 -7.668014E+02 1.666025E-03 8.105640E-04 
2.014918E+03 -1.114672E+03 -7.698532E+02 1.537093E-03 8.147723E-04 
2.014921E+03 -1.112303E+03 -7.728986E+02 1.439296E-03 8.187129E-04 
2.014923E+03 -1.109834E+03 -7.759371E+02 1.362653E-03 8.224436E-04 
2.014926E+03 -1.107320E+03 -7.789688E+02 1.300910E-03 8.260053E-04 
2.014929E+03 -1.104781E+03 -7.819935E+02 1.249785E-03 8.294270E-04 
2.014931E+03 -1.102225E+03 -7.850113E+02 1.206473E-03 8.327302E-04 
2.014934E+03 -1.099658E+03 -7.880219E+02 1.169113E-03 8.359310E-04 
2.014937E+03 -1.097081E+03 -7.910256E+02 1.136438E-03 8.390424E-04 
2.014940E+03 -1.094498E+03 -7.940222E+02 1.107554E-03 8.420747E-04 
2.014942E+03 -1.091909E+03 -7.970116E+02 1.081808E-03 8.450366E-04 
2.014945E+03 -1.089316E+03 -7.999940E+02 1.058709E-03 8.479352E-04 
2.014948E+03 -1.086718E+03 -8.029693E+02 1.037878E-03 8.507767E-04 
2.014951E+03 -1.084118E+03 -8.059375E+02 1.019012E-03 8.535666E-04 
2.014953E+03 -1.081514E+03 -8.088985E+02 1.001867E-03 8.563096E-04 
2.014956E+03 -1.078908E+03 -8.118524E+02 9.862403E-04 8.590098E-04 
2.014959E+03 -1.076300E+03 -8.147991E+02 9.719617E-04 8.616709E-04 
2.014962E+03 -1.073689E+03 -8.177387E+02 9.588873E-04 8.642961E-04 
2.014964E+03 -1.071077E+03 -8.206712E+02 9.468932E-04 8.668886E-04 
2.014967E+03 -1.068463E+03 -8.235965E+02 9.358722E-04 8.694509E-04 
2.014970E+03 -1.065848E+03 -8.265146E+02 9.257307E-04 8.719854E-04 
2.014973E+03 -1.063232E+03 -8.294256E+02 9.163868E-04 8.744943E-04 
2.014975E+03 -1.060614E+03 -8.323294E+02 9.077679E-04 8.769796E-04 
2.014978E+03 -1.057996E+03 -8.352260E+02 8.998102E-04 8.794432E-04 
2.014981E+03 -1.055376E+03 -8.381155E+02 8.924566E-04 8.818866E-04 
2.014984E+03 -1.052756E+03 -8.409978E+02 8.856565E-04 8.843114E-04 
2.014986E+03 -1.050134E+03 -8.438729E+02 8.793644E-04 8.867190E-04 
2.014989E+03 -1.047512E+03 -8.467408E+02 8.735397E-04 8.891106E-04 
2.014992E+03 -1.044889E+03 -8.496015E+02 8.681458E-04 8.914874E-04 
2.014994E+03 -1.042266E+03 -8.524551E+02 8.631500E-04 8.938506E-04 
2.014997E+03 -1.039642E+03 -8.553015E+02 8.585224E-04 8.962011E-04 
2.015000E+03 -1.037018E+03 -8.581407E+02 8.542363E-04 8.985399E-04 
2.015000E+03 -1.036962E+03 -8.582010E+02 8.552739E-04 8.985896E-04 
2.015003E+03 -1.036165E+03 -8.610378E+02 7.000963E-04 9.005064E-04 
2.015005E+03 -1.034891E+03 -8.638712E+02 5.789642E-04 9.020915E-04 
2.015008E+03 -1.033509E+03 -8.667008E+02 4.820752E-04 9.034113E-04 