TITLE = ""
VARIABLES ="simulation time, " "Aqueous Volumetric Flux Rate (1)" "Aqueous Volumetric Flux Integral (1)" "Conservation Component Species Flux (total_cr6) Rate (2)" "Conservation Component Species Flux (total_cr6) Integral (2)"
ZONE T="Reference Node Variables" F=POINT
2.014000E+03 -7.877609E+02 -2.156772E-06 0.000000E+00 0.000000E+00
2.014000E+03 -7.877609E+02 -4.852736E-06 1.471380E-11 3.178415E-19
2.014000E+03 -7.877609E+02 -8.222692E-06 3.310604E-11 1.211771E-18
2.014000E+03 -7.877609E+02 -1.243514E-05 5.609634E-11 3.105163E-18
2.014000E+03 -7.877609E+02 -1.770069E-05 8.483421E-11 6.684371E-18
2.014000E+03 -7.877609E+02 -2.428264E-05 1.207565E-10 1.305287E-17
2.014000E+03 -7.877609E+02 -3.251007E-05 1.656594E-10 2.397361E-17
2.014000E+03 -7.877609E+02 -4.279436E-05 2.217880E-10 4.224974E-17
2.014000E+03 -7.877609E+02 -5.564972E-05 2.919487E-10 7.232177E-17
2.014000E+03 -7.877609E+02 -7.171892E-05 3.796496E-10 1.212037E-16
2.014000E+03 -7.877609E+02 -9.180542E-05 4.892756E-10 1.999500E-16
2.014000E+03 -7.877609E+02 -1.169136E-04 6.263079E-10 3.259512E-16
2.014000E+03 -7.877609E+02 -1.482987E-04 7.975982E-10 5.265280E-16
2.014000E+03 -7.877609E+02 -1.875302E-04 1.011711E-09 8.445543E-16
2.014000E+03 -7.877609E+02 -2.365695E-04 1.279351E-09 1.347252E-15
2.014000E+03 -7.877609E+02 -2.978686E-04 1.613900E-09 2.139943E-15
2.014000E+03 -7.877609E+02 -3.744925E-04 2.032086E-09 3.387555E-15
2.014000E+03 -7.877609E+02 -4.702724E-04 2.554817E-09 5.348238E-15
2.014000E+03 -7.877609E+02 -5.899973E-04 3.208227E-09 8.425916E-15
2.014000E+03 -7.877609E+02 -7.396534E-04 4.024985E-09 1.325242E-14
2.014000E+03 -7.877609E+02 -9.267236E-04 5.045927E-09 2.081588E-14
2.014000E+03 -7.877609E+02 -1.160561E-03 6.322093E-09 3.266131E-14
2.014000E+03 -7.877609E+02 -1.452858E-03 7.917284E-09 5.120421E-14
2.014000E+03 -7.877609E+02 -1.818230E-03 9.911248E-09 8.022042E-14
2.014000E+03 -7.877610E+02 -2.274944E-03 1.240366E-08 1.256129E-13
2.014000E+03 -7.877610E+02 -2.845837E-03 1.551912E-08 1.966069E-13
2.014000E+03 -7.877611E+02 -3.559453E-03 1.941334E-08 3.076209E-13
2.014000E+03 -7.877612E+02 -4.451473E-03 2.428096E-08 4.811887E-13
2.014000E+03 -7.877613E+02 -5.566498E-03 3.036525E-08 7.525250E-13
2.014000E+03 -7.877615E+02 -6.960281E-03 3.797024E-08 1.176662E-12
2.014000E+03 -7.877617E+02 -8.702509E-03 4.747589E-08 1.839600E-12
2.014000E+03 -7.877620E+02 -1.088029E-02 5.935704E-08 2.875731E-12
2.014000E+03 -7.877625E+02 -1.360253E-02 7.420706E-08 4.495071E-12
2.014000E+03 -7.877631E+02 -1.700532E-02 9.276737E-08 7.025816E-12
2.014000E+03 -7.877638E+02 -2.125882E-02 1.159643E-07 1.098085E-11
2.014000E+03 -7.877648E+02 -2.657570E-02 1.449550E-07 1.716169E-11
2.014000E+03 -7.877660E+02 -3.322181E-02 1.811850E-07 2.682097E-11
2.014000E+03 -7.877674E+02 -4.152946E-02 2.264593E-07 4.191638E-11
2.014000E+03 -7.877692E+02 -5.191405E-02 2.830318E-07 6.550773E-11
2.014000E+03 -7.877714E+02 -6.489482E-02 3.537155E-07 1.023777E-10
2.014000E+03 -7.877740E+02 -8.112084E-02 4.420204E-07 1.600025E-10
2.014000E+03 -7.877771E+02 -1.014034E-01 5.523246E-07 2.500706E-10
2.014000E+03 -7.877807E+02 -1.267568E-01 6.900852E-07 3.908578E-10
2.014000E+03 -7.877851E+02 -1.584487E-01 8.621008E-07 6.109454E-10
2.014000E+03 -7.877901E+02 -1.980638E-01 1.076834E-06 9.550426E-10
2.014000E+03 -7.877958E+02 -2.475830E-01 1.344810E-06 1.493106E-09
2.014000E+03 -7.878024E+02 -3.094826E-01 1.679105E-06 2.334640E-09
2.014000E+03 -7.878100E+02 -3.868578E-01 2.095941E-06 3.651130E-09
2.014001E+03 -7.878186E+02 -4.835779E-01 2.615421E-06 5.711298E-09
2.014001E+03 -7.878284E+02 -6.044795E-01 3.262415E-06 8.936545E-09
2.014001E+03 -7.878396E+02 -7.556087E-01 4.067647E-06 1.398835E-08
2.014001E+03 -7.878523E+02 -9.445231E-01 5.069017E-06 2.190632E-08
2.014001E+03 -7.878667E+02 -1.180671E+00 6.313228E-06 3.432690E-08
2.014002E+03 -7.878829E+02 -1.475861E+00 7.857793E-06 5.383099E-08
2.014002E+03 -7.879009E+02 -1.844857E+00 9.773540E-06 8.449917E-08
2.014003E+03 -7.879207E+02 -2.306114E+00 1.214777E-05 1.328027E-07
2.014004E+03 -7.879419E+02 -2.882701E+00 1.508827E-05 2.090426E-07
2.014005E+03 -7.879643E+02 -3.603455E+00 1.872842E-05 3.296898E-07
2.014006E+03 -7.879873E+02 -4.504424E+00 2.323373E-05 5.212224E-07
2.014007E+03 -7.880103E+02 -5.630668E+00 2.881002E-05 8.264684E-07
2.014009E+03 -7.880326E+02 -7.038512E+00 3.571364E-05 1.315187E-06
2.014011E+03 -7.880536E+02 -8.798365E+00 4.426388E-05 2.101876E-06
2.014014E+03 -7.880727E+02 -1.095599E+01 5.486370E-05 3.349881E-06
2.014017E+03 -7.880873E+02 -1.311366E+01 6.781421E-05 4.944642E-06
2.014019E+03 -7.880987E+02 -1.527135E+01 8.066029E-05 6.904487E-06
2.014022E+03 -7.881078E+02 -1.742907E+01 9.341899E-05 9.247375E-06
2.014025E+03 -7.881153E+02 -1.958682E+01 1.061016E-04 1.199088E-05
2.014028E+03 -7.881215E+02 -2.174458E+01 1.187158E-04 1.515216E-05
2.014030E+03 -7.881268E+02 -2.390235E+01 1.312672E-04 1.874801E-05
2.014033E+03 -7.881313E+02 -2.606014E+01 1.437597E-04 2.279479E-05
2.014036E+03 -7.881353E+02 -2.821793E+01 1.561965E-04 2.730848E-05
2.014039E+03 -7.881387E+02 -3.037574E+01 1.685800E-04 3.230467E-05
2.014041E+03 -7.881418E+02 -3.253355E+01 1.809124E-04 3.779856E-05
2.014044E+03 -7.881445E+02 -3.469137E+01 1.931952E-04 4.380498E-05
2.014047E+03 -7.881470E+02 -3.684920E+01 2.054299E-04 5.033837E-05
2.014049E+03 -7.881492E+02 -3.900704E+01 2.176178E-04 5.741285E-05
2.014052E+03 -7.881512E+02 -4.116488E+01 2.297601E-04 6.504213E-05
2.014055E+03 -7.881530E+02 -4.332272E+01 2.418577E-04 7.323961E-05
2.014058E+03 -7.881546E+02 -4.548057E+01 2.539114E-04 8.201832E-05
2.014060E+03 -7.881561E+02 -4.763843E+01 2.659222E-04 9.139095E-05
2.014063E+03 -7.881575E+02 -4.979629E+01 2.778906E-04 1.013699E-04
2.014066E+03 -7.881588E+02 -5.195415E+01 2.898173E-04 1.119672E-04
2.014069E+03 -7.881599E+02 -5.411201E+01 3.017028E-04 1.231946E-04
2.014071E+03 -7.881610E+02 -5.626988E+01 3.135477E-04 1.350635E-04
2.014074E+03 -7.881620E+02 -5.842775E+01 3.253523E-04 1.475849E-04
2.014077E+03 -7.881629E+02 -6.058562E+01 3.371171E-04 1.607698E-04
2.014080E+03 -7.881638E+02 -6.274350E+01 3.488425E-04 1.746286E-04
2.014082E+03 -7.881646E+02 -6.490137E+01 3.605286E-04 1.891715E-04
2.014085E+03 -7.881653E+02 -6.693608E+01 3.721827E-04 2.035126E-04
2.014088E+03 -7.818562E+02 -6.907669E+01 3.987685E-04 2.194792E-04
2.014090E+03 -7.757890E+02 -7.120068E+01 4.238323E-04 2.361882E-04
2.014093E+03 -7.697716E+02 -7.330820E+01 4.472751E-04 2.536309E-04
2.014096E+03 -7.637792E+02 -7.539932E+01 4.695932E-04 2.718029E-04
2.014099E+03 -7.578037E+02 -7.747407E+01 4.911333E-04 2.907011E-04
2.014101E+03 -7.518410E+02 -7.953250E+01 5.121272E-04 3.103230E-04
2.014104E+03 -7.458891E+02 -8.157463E+01 5.327307E-04 3.306659E-04
2.014107E+03 -7.399463E+02 -8.360049E+01 5.530504E-04 3.517273E-04
2.014110E+03 -7.340117E+02 -8.561011E+01 5.731608E-04 3.735042E-04
2.014112E+03 -7.280846E+02 -8.760349E+01 5.931152E-04 3.959934E-04
2.014115E+03 -7.221643E+02 -8.958067E+01 6.129523E-04 4.191915E-04
2.014118E+03 -7.162504E+02 -9.154166E+01 6.327011E-04 4.430945E-04
2.014121E+03 -7.103426E+02 -9.348647E+01 6.523832E-04 4.676984E-04
2.014123E+03 -7.044404E+02 -9.541512E+01 6.720154E-04 4.929984E-04
2.014126E+03 -6.985437E+02 -9.732763E+01 6.916106E-04 5.189899E-04
2.014129E+03 -6.926522E+02 -9.922401E+01 7.111791E-04 5.456676E-04
2.014131E+03 -6.867656E+02 -1.011043E+02 7.307292E-04 5.730261E-04
2.014134E+03 -6.808838E+02 -1.029684E+02 7.502674E-04 6.010597E-04
2.014137E+03 -6.750065E+02 -1.048165E+02 7.697994E-04 6.297624E-04
2.014140E+03 -6.691337E+02 -1.066485E+02 7.899355E-04 6.591297E-04
2.014142E+03 -6.632652E+02 -1.084644E+02 8.143446E-04 6.891666E-04
2.014145E+03 -6.574009E+02 -1.102643E+02 8.388739E-04 7.198669E-04
2.014148E+03 -6.515405E+02 -1.120481E+02 8.635260E-04 7.512238E-04
2.014151E+03 -6.456840E+02 -1.138159E+02 8.883030E-04 7.832305E-04
2.014153E+03 -6.398313E+02 -1.155676E+02 9.132064E-04 8.158799E-04
2.014156E+03 -6.339823E+02 -1.173034E+02 9.382376E-04 8.491648E-04
2.014159E+03 -6.281369E+02 -1.190231E+02 9.633975E-04 8.830777E-04
2.014162E+03 -6.222949E+02 -1.207269E+02 9.886867E-04 9.176110E-04
2.014162E+03 -6.221827E+02 -1.207596E+02 1.004266E-03 9.182762E-04
2.014164E+03 -6.285601E+02 -1.224805E+02 8.560052E-04 9.526718E-04
2.014167E+03 -6.338906E+02 -1.242160E+02 7.847556E-04 9.873703E-04
2.014170E+03 -6.390606E+02 -1.259656E+02 7.276301E-04 1.022490E-03
2.014173E+03 -6.441760E+02 -1.277293E+02 6.805125E-04 1.058099E-03
2.014175E+03 -6.492725E+02 -1.295069E+02 6.405297E-04 1.094241E-03
2.014178E+03 -6.543680E+02 -1.312984E+02 6.057461E-04 1.130948E-03
2.014181E+03 -6.594742E+02 -1.331040E+02 5.748476E-04 1.168246E-03
2.014184E+03 -6.646006E+02 -1.349236E+02 5.469232E-04 1.206160E-03
2.014186E+03 -6.697561E+02 -1.367573E+02 5.213259E-04 1.244709E-03
2.014189E+03 -6.749507E+02 -1.386052E+02 4.975860E-04 1.283918E-03
2.014192E+03 -6.801971E+02 -1.404674E+02 4.753555E-04 1.323814E-03
2.014194E+03 -6.855137E+02 -1.423443E+02 4.543735E-04 1.364427E-03
2.014197E+03 -6.909315E+02 -1.442359E+02 4.344452E-04 1.405799E-03
2.014200E+03 -6.965172E+02 -1.461429E+02 4.154353E-04 1.447991E-03
2.014203E+03 -7.025503E+02 -1.480664E+02 3.973249E-04 1.491117E-03
2.014205E+03 -7.082938E+02 -1.500056E+02 3.798495E-04 1.535204E-03
2.014208E+03 -7.134524E+02 -1.519589E+02 3.626187E-04 1.580268E-03
2.014211E+03 -7.187932E+02 -1.539269E+02 3.455028E-04 1.626570E-03
2.014214E+03 -7.248506E+02 -1.559114E+02 3.282416E-04 1.675294E-03
2.014216E+03 -7.294887E+02 -1.579086E+02 3.132746E-04 1.723900E-03
2.014219E+03 -7.341401E+02 -1.599186E+02 3.074999E-04 1.772406E-03
2.014222E+03 -7.387882E+02 -1.619413E+02 3.019043E-04 1.820810E-03
2.014225E+03 -7.434342E+02 -1.639767E+02 2.964676E-04 1.869107E-03
2.014227E+03 -7.480785E+02 -1.660248E+02 2.911679E-04 1.917294E-03
2.014230E+03 -7.527214E+02 -1.680857E+02 2.859853E-04 1.965367E-03
2.014233E+03 -7.573631E+02 -1.701592E+02 2.809019E-04 2.013326E-03
2.014236E+03 -7.620037E+02 -1.722455E+02 2.759022E-04 2.061166E-03
2.014238E+03 -7.666433E+02 -1.743444E+02 2.709722E-04 2.108889E-03
2.014241E+03 -7.712821E+02 -1.764561E+02 2.660997E-04 2.156493E-03
2.014244E+03 -7.759199E+02 -1.785804E+02 2.612737E-04 2.203977E-03
2.014247E+03 -7.805571E+02 -1.807175E+02 2.564839E-04 2.251342E-03
2.014247E+03 -7.806554E+02 -1.807629E+02 2.587902E-04 2.252349E-03
2.014249E+03 -7.815229E+02 -1.829025E+02 1.858029E-04 2.297735E-03
2.014252E+03 -7.815148E+02 -1.850422E+02 1.248765E-04 2.341736E-03
2.014255E+03 -7.813292E+02 -1.871814E+02 7.303703E-05 2.384615E-03
2.014258E+03 -7.810222E+02 -1.893197E+02 2.828817E-05 2.426518E-03
2.014260E+03 -7.806634E+02 -1.914570E+02 0.000000E+00 2.467573E-03
2.014263E+03 -7.802752E+02 -1.935933E+02 0.000000E+00 2.507921E-03
2.014266E+03 -7.798672E+02 -1.957285E+02 0.000000E+00 2.547615E-03
2.014268E+03 -7.794465E+02 -1.978625E+02 0.000000E+00 2.586705E-03
2.014271E+03 -7.790393E+02 -1.999954E+02 0.000000E+00 2.625239E-03
2.014274E+03 -7.786119E+02 -2.021271E+02 0.000000E+00 2.663269E-03
2.014277E+03 -7.781700E+02 -2.042576E+02 0.000000E+00 2.700840E-03
2.014279E+03 -7.777183E+02 -2.063869E+02 0.000000E+00 2.737992E-03
2.014282E+03 -7.772594E+02 -2.085149E+02 0.000000E+00 2.774763E-03
2.014285E+03 -7.767946E+02 -2.106417E+02 0.000000E+00 2.811189E-03
2.014288E+03 -7.763250E+02 -2.127671E+02 0.000000E+00 2.847307E-03
2.014290E+03 -7.758512E+02 -2.148913E+02 0.000000E+00 2.883153E-03
2.014293E+03 -7.753738E+02 -2.170141E+02 0.000000E+00 2.918761E-03
2.014296E+03 -7.748930E+02 -2.191357E+02 0.000000E+00 2.954167E-03
2.014299E+03 -7.744094E+02 -2.212559E+02 0.000000E+00 2.989406E-03
2.014301E+03 -7.739230E+02 -2.233748E+02 0.000000E+00 3.024513E-03
2.014304E+03 -7.734342E+02 -2.254923E+02 0.000000E+00 3.059525E-03
2.014307E+03 -7.729432E+02 -2.276085E+02 0.000000E+00 3.094477E-03
2.014310E+03 -7.724501E+02 -2.297234E+02 0.000000E+00 3.129406E-03
2.014312E+03 -7.719552E+02 -2.318369E+02 0.000000E+00 3.164351E-03
2.014315E+03 -7.714585E+02 -2.339490E+02 0.000000E+00 3.199350E-03
2.014318E+03 -7.709602E+02 -2.360598E+02 0.000000E+00 3.234443E-03
2.014320E+03 -7.704653E+02 -2.381692E+02 0.000000E+00 3.269671E-03
2.014323E+03 -7.699723E+02 -2.402773E+02 0.000000E+00 3.305078E-03
2.014326E+03 -7.694763E+02 -2.423840E+02 0.000000E+00 3.340712E-03
2.014329E+03 -7.689774E+02 -2.444894E+02 0.000000E+00 3.376625E-03
2.014329E+03 -7.689595E+02 -2.445326E+02 0.000000E+00 3.377366E-03
2.014332E+03 -7.674614E+02 -2.466338E+02 0.000000E+00 3.412550E-03
2.014334E+03 -7.648278E+02 -2.487278E+02 0.000000E+00 3.447809E-03
2.014337E+03 -7.619618E+02 -2.508139E+02 0.000000E+00 3.483490E-03
2.014340E+03 -7.590051E+02 -2.528920E+02 0.000000E+00 3.519862E-03
2.014342E+03 -7.560080E+02 -2.549618E+02 0.000000E+00 3.557242E-03
2.014345E+03 -7.530291E+02 -2.570235E+02 0.000000E+00 3.596155E-03
2.014348E+03 -7.499227E+02 -2.590767E+02 0.000000E+00 3.638610E-03
2.014351E+03 -7.466262E+02 -2.611208E+02 0.000000E+00 3.681363E-03
2.014353E+03 -7.435631E+02 -2.631566E+02 0.000000E+00 3.723823E-03
2.014356E+03 -7.405090E+02 -2.651840E+02 0.000000E+00 3.766003E-03
2.014359E+03 -7.374497E+02 -2.672030E+02 0.000000E+00 3.807931E-03
2.014362E+03 -7.343835E+02 -2.692136E+02 0.000000E+00 3.849633E-03
2.014364E+03 -7.313107E+02 -2.712159E+02 0.000000E+00 3.891140E-03
2.014367E+03 -7.282318E+02 -2.732097E+02 0.000000E+00 3.932480E-03
2.014370E+03 -7.251474E+02 -2.751950E+02 0.000000E+00 3.973682E-03
2.014373E+03 -7.220579E+02 -2.771719E+02 0.000000E+00 4.014775E-03
2.014375E+03 -7.189638E+02 -2.791403E+02 0.000000E+00 4.055789E-03
2.014378E+03 -7.158654E+02 -2.811002E+02 0.000000E+00 4.096754E-03
2.014381E+03 -7.127630E+02 -2.830517E+02 0.000000E+00 4.137702E-03
2.014384E+03 -7.096567E+02 -2.849946E+02 0.000000E+00 4.178664E-03
2.014386E+03 -7.065468E+02 -2.869290E+02 0.000000E+00 4.219675E-03
2.014389E+03 -7.034334E+02 -2.888549E+02 0.000000E+00 4.260769E-03
2.014392E+03 -7.003166E+02 -2.907723E+02 0.000000E+00 4.301983E-03
2.014394E+03 -6.971964E+02 -2.926811E+02 0.000000E+00 4.343358E-03
2.014397E+03 -6.940729E+02 -2.945814E+02 0.000000E+00 4.384936E-03
2.014400E+03 -6.909462E+02 -2.964731E+02 0.000000E+00 4.426762E-03
2.014403E+03 -6.878163E+02 -2.983562E+02 0.000000E+00 4.468887E-03
2.014405E+03 -6.846830E+02 -3.002308E+02 0.000000E+00 4.511366E-03
2.014408E+03 -6.815465E+02 -3.020968E+02 0.000000E+00 4.554262E-03
2.014411E+03 -6.784066E+02 -3.039541E+02 0.000000E+00 4.597648E-03
2.014414E+03 -6.752676E+02 -3.058029E+02 0.000000E+00 4.641597E-03
2.014414E+03 -6.751896E+02 -3.058422E+02 0.000000E+00 4.642536E-03
2.014416E+03 -6.774297E+02 -3.076969E+02 0.000000E+00 4.689766E-03
2.014419E+03 -6.806178E+02 -3.095603E+02 0.000000E+00 4.738990E-03
2.014422E+03 -6.840507E+02 -3.114331E+02 0.000000E+00 4.789900E-03
2.014425E+03 -6.875847E+02 -3.133156E+02 0.000000E+00 4.842436E-03
2.014427E+03 -6.911718E+02 -3.152080E+02 0.000000E+00 4.896641E-03
2.014430E+03 -6.947934E+02 -3.171102E+02 0.000000E+00 4.952634E-03
2.014433E+03 -6.984461E+02 -3.190224E+02 0.000000E+00 5.010622E-03
2.014436E+03 -7.021445E+02 -3.209448E+02 0.000000E+00 5.070990E-03
2.014438E+03 -7.057583E+02 -3.228771E+02 0.000000E+00 5.134459E-03
2.014441E+03 -7.093332E+02 -3.248191E+02 0.000000E+00 5.201364E-03
2.014444E+03 -7.129557E+02 -3.267711E+02 0.000000E+00 5.269127E-03
2.014447E+03 -7.166283E+02 -3.287331E+02 0.000000E+00 5.337668E-03
2.014449E+03 -7.203123E+02 -3.307052E+02 0.000000E+00 5.406976E-03
2.014452E+03 -7.240023E+02 -3.326874E+02 0.000000E+00 5.477053E-03
2.014455E+03 -7.276964E+02 -3.346797E+02 0.000000E+00 5.547903E-03
2.014458E+03 -7.313936E+02 -3.366822E+02 0.000000E+00 5.619535E-03
2.014460E+03 -7.350931E+02 -3.386948E+02 0.000000E+00 5.691958E-03
2.014463E+03 -7.387946E+02 -3.407175E+02 0.000000E+00 5.765184E-03
2.014466E+03 -7.424977E+02 -3.427503E+02 0.000000E+00 5.839226E-03
2.014468E+03 -7.462021E+02 -3.447933E+02 0.000000E+00 5.914096E-03
2.014471E+03 -7.499076E+02 -3.468464E+02 0.000000E+00 5.989811E-03
2.014474E+03 -7.536141E+02 -3.489097E+02 0.000000E+00 6.066384E-03
2.014477E+03 -7.573213E+02 -3.509832E+02 0.000000E+00 6.143835E-03
2.014479E+03 -7.610291E+02 -3.530667E+02 0.000000E+00 6.222179E-03
2.014482E+03 -7.647376E+02 -3.551605E+02 0.000000E+00 6.301437E-03
2.014485E+03 -7.684465E+02 -3.572644E+02 0.000000E+00 6.381629E-03
2.014488E+03 -7.721558E+02 -3.593784E+02 0.000000E+00 6.462775E-03
2.014490E+03 -7.758654E+02 -3.615026E+02 0.000000E+00 6.544898E-03
2.014493E+03 -7.795754E+02 -3.636370E+02 0.000000E+00 6.628021E-03
2.014496E+03 -7.832857E+02 -3.657815E+02 0.000000E+00 6.712171E-03
2.014496E+03 -7.833606E+02 -3.658256E+02 0.000000E+00 6.713909E-03
2.014499E+03 -7.833791E+02 -3.679703E+02 0.000000E+00 6.801686E-03
2.014501E+03 -7.841376E+02 -3.701172E+02 0.000000E+00 6.891310E-03
2.014504E+03 -7.851004E+02 -3.722667E+02 0.000000E+00 6.982272E-03
2.014507E+03 -7.861638E+02 -3.744191E+02 0.000000E+00 7.074321E-03
2.014510E+03 -7.872687E+02 -3.765745E+02 0.000000E+00 7.167362E-03
2.014512E+03 -7.883923E+02 -3.787330E+02 0.000000E+00 7.261362E-03
2.014515E+03 -7.895288E+02 -3.808946E+02 0.000000E+00 7.356302E-03
2.014518E+03 -7.906758E+02 -3.830594E+02 0.000000E+00 7.452171E-03
2.014521E+03 -7.918312E+02 -3.852273E+02 0.000000E+00 7.548959E-03
2.014523E+03 -7.929935E+02 -3.873984E+02 0.000000E+00 7.646662E-03
2.014526E+03 -7.941614E+02 -3.895727E+02 0.000000E+00 7.745282E-03
2.014529E+03 -7.953341E+02 -3.917502E+02 0.000000E+00 7.844819E-03
2.014531E+03 -7.965106E+02 -3.939309E+02 0.000000E+00 7.945279E-03
2.014534E+03 -7.976904E+02 -3.961149E+02 0.000000E+00 8.046668E-03
2.014537E+03 -7.988730E+02 -3.983021E+02 0.000000E+00 8.148995E-03
2.014540E+03 -8.000579E+02 -4.004925E+02 0.000000E+00 8.252270E-03
2.014542E+03 -8.012448E+02 -4.026862E+02 0.000000E+00 8.356504E-03
2.014545E+03 -8.024334E+02 -4.048831E+02 0.000000E+00 8.461710E-03
2.014548E+03 -8.036236E+02 -4.070833E+02 0.000000E+00 8.567901E-03
2.014551E+03 -8.048151E+02 -4.092868E+02 0.000000E+00 8.675095E-03
2.014553E+03 -8.060079E+02 -4.114935E+02 0.000000E+00 8.783305E-03
2.014556E+03 -8.072018E+02 -4.137035E+02 0.000000E+00 8.892552E-03
2.014559E+03 -8.083967E+02 -4.159168E+02 0.000000E+00 9.002852E-03
2.014562E+03 -8.095926E+02 -4.181333E+02 0.000000E+00 9.114227E-03
2.014564E+03 -8.107895E+02 -4.203532E+02 0.000000E+00 9.226699E-03
2.014567E+03 -8.119872E+02 -4.225763E+02 0.000000E+00 9.340291E-03
2.014570E+03 -8.131858E+02 -4.248026E+02 0.000000E+00 9.455027E-03
2.014573E+03 -8.143853E+02 -4.270323E+02 0.000000E+00 9.570935E-03
2.014575E+03 -8.155856E+02 -4.292653E+02 0.000000E+00 9.688043E-03
2.014578E+03 -8.167869E+02 -4.315015E+02 0.000000E+00 9.806385E-03
2.014581E+03 -8.179891E+02 -4.337410E+02 0.000000E+00 9.925993E-03
2.014581E+03 -8.180133E+02 -4.337886E+02 0.000000E+00 9.928543E-03
2.014584E+03 -8.190103E+02 -4.360309E+02 0.000000E+00 1.005976E-02
2.014586E+03 -8.214034E+02 -4.382798E+02 0.000000E+00 1.019851E-02
2.014589E+03 -8.241750E+02 -4.405363E+02 0.000000E+00 1.034381E-02
2.014592E+03 -8.271326E+02 -4.428008E+02 0.000000E+00 1.049533E-02
2.014595E+03 -8.302020E+02 -4.450738E+02 0.000000E+00 1.065290E-02
2.014597E+03 -8.333464E+02 -4.473554E+02 0.000000E+00 1.081648E-02
2.014600E+03 -8.365448E+02 -4.496457E+02 0.000000E+00 1.098602E-02
2.014603E+03 -8.397834E+02 -4.519449E+02 0.000000E+00 1.116151E-02
2.014605E+03 -8.430528E+02 -4.542531E+02 0.000000E+00 1.134293E-02
2.014608E+03 -8.463464E+02 -4.565702E+02 0.000000E+00 1.153026E-02
2.014611E+03 -8.496590E+02 -4.588965E+02 0.000000E+00 1.172350E-02
2.014614E+03 -8.529869E+02 -4.612318E+02 0.000000E+00 1.192263E-02
2.014616E+03 -8.563271E+02 -4.635763E+02 0.000000E+00 1.212764E-02
2.014619E+03 -8.596775E+02 -4.659300E+02 0.000000E+00 1.233850E-02
2.014622E+03 -8.630363E+02 -4.682929E+02 0.000000E+00 1.255521E-02
2.014625E+03 -8.664021E+02 -4.706649E+02 0.000000E+00 1.277772E-02
2.014627E+03 -8.697739E+02 -4.730463E+02 0.000000E+00 1.300603E-02
2.014630E+03 -8.731507E+02 -4.754368E+02 0.000000E+00 1.324010E-02
2.014633E+03 -8.765319E+02 -4.778366E+02 0.000000E+00 1.347990E-02
2.014636E+03 -8.799169E+02 -4.802457E+02 0.000000E+00 1.372540E-02
2.014638E+03 -8.833053E+02 -4.826641E+02 0.000000E+00 1.397657E-02
2.014641E+03 -8.866967E+02 -4.850917E+02 0.000000E+00 1.423338E-02
2.014644E+03 -8.900908E+02 -4.875286E+02 0.000000E+00 1.449578E-02
2.014647E+03 -8.934872E+02 -4.899749E+02 0.000000E+00 1.476374E-02
2.014649E+03 -8.968859E+02 -4.924304E+02 0.000000E+00 1.503722E-02
2.014652E+03 -9.002865E+02 -4.948953E+02 0.000000E+00 1.531618E-02
2.014655E+03 -9.036890E+02 -4.973694E+02 0.000000E+00 1.560058E-02
2.014657E+03 -9.070932E+02 -4.998529E+02 0.000000E+00 1.589037E-02
2.014660E+03 -9.104989E+02 -5.023457E+02 0.000000E+00 1.618551E-02
2.014663E+03 -9.139061E+02 -5.048479E+02 0.000000E+00 1.648595E-02
2.014666E+03 -9.173147E+02 -5.073593E+02 0.000000E+00 1.679166E-02
2.014666E+03 -9.173867E+02 -5.074127E+02 0.000000E+00 1.679816E-02
2.014668E+03 -9.197586E+02 -5.099308E+02 4.806395E-04 1.711816E-02
2.014671E+03 -9.229366E+02 -5.124577E+02 8.139487E-04 1.744948E-02
2.014674E+03 -9.263536E+02 -5.149939E+02 1.048915E-03 1.779118E-02
2.014677E+03 -9.298851E+02 -5.175398E+02 1.231819E-03 1.814288E-02
2.014679E+03 -9.334846E+02 -5.200955E+02 1.382623E-03 1.850434E-02
2.014682E+03 -9.371297E+02 -5.226613E+02 1.511463E-03 1.887545E-02
2.014685E+03 -9.408076E+02 -5.252370E+02 1.624212E-03 1.925608E-02
2.014688E+03 -9.445105E+02 -5.278230E+02 1.724618E-03 1.964611E-02
2.014690E+03 -9.482329E+02 -5.304191E+02 1.815253E-03 2.004546E-02
2.014693E+03 -9.519710E+02 -5.330255E+02 1.897971E-03 2.045402E-02
2.014696E+03 -9.557219E+02 -5.356421E+02 1.974155E-03 2.087167E-02
2.014699E+03 -9.594834E+02 -5.382690E+02 2.044864E-03 2.129833E-02
2.014701E+03 -9.632538E+02 -5.409062E+02 2.110922E-03 2.173389E-02
2.014704E+03 -9.670318E+02 -5.435538E+02 2.172982E-03 2.217822E-02
2.014707E+03 -9.707411E+02 -5.462116E+02 2.244978E-03 2.262595E-02
2.014710E+03 -9.742412E+02 -5.488789E+02 2.327709E-03 2.307743E-02
2.014712E+03 -9.777337E+02 -5.515558E+02 2.406936E-03 2.353447E-02
2.014715E+03 -9.813284E+02 -5.542425E+02 2.481970E-03 2.399787E-02
2.014718E+03 -9.849622E+02 -5.569392E+02 2.553162E-03 2.446806E-02
2.014721E+03 -9.886217E+02 -5.596459E+02 2.620980E-03 2.494531E-02
2.014723E+03 -9.923001E+02 -5.623627E+02 2.685834E-03 2.542976E-02
2.014726E+03 -9.959935E+02 -5.650896E+02 2.748051E-03 2.592155E-02
2.014729E+03 -9.996991E+02 -5.678266E+02 2.807957E-03 2.642072E-02
2.014731E+03 -1.003415E+03 -5.705738E+02 2.984352E-03 2.692765E-02
2.014734E+03 -1.007140E+03 -5.733312E+02 3.154163E-03 2.744236E-02
2.014737E+03 -1.010874E+03 -5.760988E+02 3.317875E-03 2.796481E-02
2.014740E+03 -1.014614E+03 -5.788767E+02 3.475898E-03 2.849498E-02
2.014742E+03 -1.018361E+03 -5.816648E+02 3.628591E-03 2.903282E-02
2.014745E+03 -1.022114E+03 -5.844632E+02 3.776268E-03 2.957829E-02
2.014748E+03 -1.025872E+03 -5.872719E+02 3.919205E-03 3.013132E-02
2.014748E+03 -1.025946E+03 -5.873296E+02 3.930616E-03 3.014268E-02
2.014751E+03 -1.028246E+03 -5.901448E+02 3.589473E-03 3.069684E-02
2.014753E+03 -1.030092E+03 -5.929650E+02 3.444944E-03 3.125360E-02
2.014756E+03 -1.031820E+03 -5.957900E+02 3.383796E-03 3.181339E-02
2.014759E+03 -1.033496E+03 -5.986195E+02 3.365995E-03 3.237632E-02
2.014762E+03 -1.035143E+03 -6.014536E+02 3.373691E-03 3.294245E-02
2.014764E+03 -1.036771E+03 -6.042921E+02 3.397746E-03 3.351174E-02
2.014767E+03 -1.038388E+03 -6.071351E+02 3.432950E-03 3.408415E-02
2.014770E+03 -1.039996E+03 -6.099824E+02 3.476070E-03 3.465966E-02
2.014773E+03 -1.041597E+03 -6.128342E+02 3.524963E-03 3.523819E-02
2.014775E+03 -1.043194E+03 -6.156903E+02 3.578134E-03 3.581972E-02
2.014778E+03 -1.044787E+03 -6.185507E+02 3.634495E-03 3.640418E-02
2.014781E+03 -1.046378E+03 -6.214156E+02 3.693230E-03 3.699152E-02
2.014784E+03 -1.047966E+03 -6.242847E+02 3.753710E-03 3.758170E-02
2.014786E+03 -1.049553E+03 -6.271583E+02 3.815445E-03 3.817467E-02
2.014789E+03 -1.051139E+03 -6.300361E+02 3.878043E-03 3.877039E-02
2.014792E+03 -1.052724E+03 -6.329183E+02 3.941191E-03 3.936880E-02
2.014794E+03 -1.054308E+03 -6.358049E+02 4.004637E-03 3.996986E-02
2.014797E+03 -1.055892E+03 -6.386957E+02 4.068175E-03 4.057353E-02
2.014800E+03 -1.057475E+03 -6.415909E+02 4.131639E-03 4.117976E-02
2.014803E+03 -1.059058E+03 -6.444905E+02 4.194890E-03 4.178852E-02
2.014805E+03 -1.060641E+03 -6.473944E+02 4.257819E-03 4.239976E-02
2.014808E+03 -1.062225E+03 -6.503026E+02 4.320334E-03 4.301342E-02
2.014811E+03 -1.063808E+03 -6.532151E+02 4.382361E-03 4.362948E-02
2.014814E+03 -1.065392E+03 -6.561320E+02 4.443840E-03 4.424790E-02
2.014816E+03 -1.066976E+03 -6.590532E+02 4.504722E-03 4.486862E-02
2.014819E+03 -1.068528E+03 -6.619787E+02 4.568542E-03 4.548923E-02
2.014822E+03 -1.069908E+03 -6.649080E+02 4.642523E-03 4.610615E-02
2.014825E+03 -1.071333E+03 -6.678411E+02 4.717479E-03 4.672265E-02
2.014827E+03 -1.072688E+03 -6.707780E+02 4.789482E-03 4.733924E-02
2.014830E+03 -1.074120E+03 -6.737187E+02 4.859582E-03 4.795644E-02
2.014833E+03 -1.075579E+03 -6.766635E+02 4.928175E-03 4.857459E-02
2.014833E+03 -1.075597E+03 -6.767260E+02 4.938530E-03 4.858770E-02
2.014836E+03 -1.078500E+03 -6.796788E+02 4.165321E-03 4.919624E-02
2.014838E+03 -1.080348E+03 -6.826366E+02 3.670014E-03 4.979807E-02
2.014841E+03 -1.081948E+03 -6.855989E+02 3.322453E-03 5.039407E-02
2.014844E+03 -1.083435E+03 -6.885651E+02 3.062194E-03 5.098463E-02
2.014847E+03 -1.084858E+03 -6.915353E+02 2.857944E-03 5.156995E-02
2.014849E+03 -1.086240E+03 -6.945093E+02 2.692233E-03 5.215017E-02
2.014852E+03 -1.087594E+03 -6.974870E+02 2.554557E-03 5.272540E-02
2.014855E+03 -1.088926E+03 -7.004683E+02 2.438191E-03 5.329572E-02
2.014858E+03 -1.090242E+03 -7.034532E+02 2.338585E-03 5.386123E-02
2.014860E+03 -1.091545E+03 -7.064417E+02 2.252523E-03 5.442200E-02
2.014863E+03 -1.092838E+03 -7.094337E+02 2.177636E-03 5.497813E-02
2.014866E+03 -1.094122E+03 -7.124292E+02 2.112127E-03 5.552972E-02
2.014868E+03 -1.095399E+03 -7.154283E+02 2.054591E-03 5.607683E-02
2.014871E+03 -1.096669E+03 -7.184308E+02 2.003906E-03 5.661958E-02
2.014874E+03 -1.097934E+03 -7.214368E+02 1.959157E-03 5.715806E-02
2.014877E+03 -1.099195E+03 -7.244462E+02 1.919589E-03 5.769237E-02
2.014879E+03 -1.100451E+03 -7.274591E+02 1.884568E-03 5.822261E-02
2.014882E+03 -1.101704E+03 -7.304754E+02 1.853558E-03 5.874887E-02
2.014885E+03 -1.102953E+03 -7.334951E+02 1.826101E-03 5.927127E-02
2.014888E+03 -1.104200E+03 -7.365182E+02 1.801803E-03 5.978989E-02
2.014890E+03 -1.105444E+03 -7.395448E+02 1.780323E-03 6.030485E-02
2.014893E+03 -1.106687E+03 -7.425747E+02 1.761365E-03 6.081624E-02
2.014896E+03 -1.107927E+03 -7.456081E+02 1.744670E-03 6.132416E-02
2.014899E+03 -1.109165E+03 -7.486448E+02 1.730012E-03 6.182870E-02
2.014901E+03 -1.110402E+03 -7.516849E+02 1.717190E-03 6.232997E-02
2.014904E+03 -1.111638E+03 -7.547284E+02 1.706030E-03 6.282808E-02
2.014907E+03 -1.112872E+03 -7.577753E+02 1.696374E-03 6.332309E-02
2.014910E+03 -1.114105E+03 -7.608255E+02 1.688085E-03 6.381511E-02
2.014912E+03 -1.115337E+03 -7.638792E+02 1.681040E-03 6.430424E-02
2.014915E+03 -1.116569E+03 -7.669362E+02 1.675129E-03 6.479057E-02
2.014915E+03 -1.116594E+03 -7.669990E+02 1.677595E-03 6.480055E-02
2.014918E+03 -1.114666E+03 -7.700508E+02 1.540507E-03 6.527873E-02
2.014921E+03 -1.112297E+03 -7.730961E+02 1.442815E-03 6.574983E-02
2.014923E+03 -1.109828E+03 -7.761346E+02 1.366182E-03 6.621420E-02
2.014926E+03 -1.107315E+03 -7.791663E+02 1.304401E-03 6.667208E-02
2.014929E+03 -1.104775E+03 -7.821910E+02 1.253216E-03 6.712368E-02
2.014931E+03 -1.102220E+03 -7.852087E+02 1.209832E-03 6.756915E-02
2.014934E+03 -1.099652E+03 -7.882194E+02 1.172393E-03 6.800868E-02
2.014937E+03 -1.097076E+03 -7.912230E+02 1.139635E-03 6.844244E-02
2.014940E+03 -1.094493E+03 -7.942196E+02 1.110666E-03 6.887058E-02
2.014942E+03 -1.091904E+03 -7.972090E+02 1.084834E-03 6.929328E-02
2.014945E+03 -1.089311E+03 -8.001914E+02 1.061649E-03 6.971070E-02
2.014948E+03 -1.086713E+03 -8.031667E+02 1.040731E-03 7.012297E-02
2.014951E+03 -1.084113E+03 -8.061348E+02 1.021778E-03 7.053028E-02
2.014953E+03 -1.081509E+03 -8.090958E+02 1.004546E-03 7.093277E-02
2.014956E+03 -1.078903E+03 -8.120497E+02 9.888333E-04 7.133059E-02
2.014959E+03 -1.076295E+03 -8.149964E+02 9.744693E-04 7.172388E-02
2.014962E+03 -1.073685E+03 -8.179360E+02 9.613103E-04 7.211279E-02
2.014964E+03 -1.071073E+03 -8.208685E+02 9.492326E-04 7.249746E-02
2.014967E+03 -1.068459E+03 -8.237937E+02 9.381289E-04 7.287803E-02
2.014970E+03 -1.065844E+03 -8.267119E+02 9.279058E-04 7.325463E-02
2.014973E+03 -1.063228E+03 -8.296228E+02 9.184812E-04 7.362739E-02
2.014975E+03 -1.060610E+03 -8.325266E+02 9.097829E-04 7.399644E-02
2.014978E+03 -1.057992E+03 -8.354232E+02 9.017467E-04 7.436191E-02
2.014981E+03 -1.055372E+03 -8.383127E+02 8.943158E-04 7.472390E-02
2.014984E+03 -1.052752E+03 -8.411950E+02 8.874394E-04 7.508255E-02
2.014986E+03 -1.050131E+03 -8.440701E+02 8.810721E-04 7.543796E-02
2.014989E+03 -1.047509E+03 -8.469380E+02 8.751732E-04 7.579024E-02
2.014992E+03 -1.044886E+03 -8.497987E+02 8.697061E-04 7.613951E-02
2.014994E+03 -1.042263E+03 -8.526523E+02 8.646380E-04 7.648586E-02
2.014997E+03 -1.039639E+03 -8.554987E+02 8.599392E-04 7.682938E-02
2.015000E+03 -1.037014E+03 -8.583379E+02 8.555827E-04 7.717019E-02
2.015000E+03 -1.036959E+03 -8.583981E+02 8.566207E-04 7.717742E-02
2.015003E+03 -1.036164E+03 -8.612350E+02 7.014978E-04 7.751182E-02
2.015005E+03 -1.034890E+03 -8.640684E+02 5.802979E-04 7.784083E-02
2.015008E+03 -1.033509E+03 -8.668980E+02 4.832903E-04 7.816480E-02
2.015011E+03 -1.032078E+03 -8.697237E+02 4.032223E-04 7.848394E-02
2.015014E+03 -1.030620E+03 -8.725453E+02 3.351487E-04 7.879842E-02
2.015016E+03 -1.029145E+03 -8.753630E+02 2.758407E-04 7.910842E-02
2.015019E+03 -1.027658E+03 -8.781766E+02 2.231690E-04 7.941411E-02
2.015022E+03 -1.026162E+03 -8.809860E+02 1.756893E-04 7.971564E-02
2.015025E+03 -1.024660E+03 -8.837914E+02 1.323886E-04 8.001319E-02