TITLE = ""
VARIABLES ="simulation time, " "Aqueous Volumetric Flux Rate (1)" "Aqueous Volumetric Flux Integral (1)" "Conservation Component Species Flux (total_cr6) Rate (2)" "Conservation Component Species Flux (total_cr6) Integral (2)"
ZONE T="Reference Node Variables" F=POINT
2.014000E+03 9.232954E+02 2.527845E-06 0.000000E+00 0.000000E+00 
2.014000E+03 9.247980E+02 5.692794E-06 7.194829E-11 2.462296E-19 
2.014000E+03 9.266475E+02 9.656892E-06 1.618837E-10 9.387504E-19 
2.014000E+03 9.289026E+02 1.462407E-05 2.743029E-10 2.405548E-18 
2.014000E+03 9.316517E+02 2.085142E-05 4.148269E-10 5.178336E-18 
2.014000E+03 9.349897E+02 2.866350E-05 5.904819E-10 1.011196E-17 
2.014000E+03 9.390228E+02 3.847073E-05 8.100507E-10 1.857219E-17 
2.014000E+03 9.438662E+02 5.079298E-05 1.084512E-09 3.273059E-17 
2.014000E+03 9.496391E+02 6.629001E-05 1.427588E-09 5.602720E-17 
2.014000E+03 9.564569E+02 8.580037E-05 1.856433E-09 9.389580E-17 
2.014000E+03 9.644187E+02 1.103913E-04 2.392490E-09 1.549000E-16 
2.014000E+03 9.735902E+02 1.414224E-04 3.062561E-09 2.525124E-16 
2.014000E+03 9.839809E+02 1.806251E-04 3.900150E-09 4.078981E-16 
2.014000E+03 9.955186E+02 2.302032E-04 4.947136E-09 6.542715E-16 
2.014000E+03 1.008024E+03 2.929541E-04 6.255871E-09 1.043709E-15 
2.014000E+03 1.021190E+03 3.724175E-04 7.891791E-09 1.657804E-15 
2.014000E+03 1.034587E+03 4.730497E-04 9.936696E-09 2.624326E-15 
2.014000E+03 1.047685E+03 6.004324E-04 1.249284E-08 4.143268E-15 
2.014000E+03 1.059922E+03 7.615206E-04 1.568803E-08 6.527554E-15 
2.014000E+03 1.070804E+03 9.649483E-04 1.968206E-08 1.026668E-14 
2.014000E+03 1.080014E+03 1.221420E-03 2.467468E-08 1.612620E-14 
2.014000E+03 1.087497E+03 1.544231E-03 3.091561E-08 2.530314E-14 
2.014000E+03 1.093476E+03 1.949963E-03 3.871708E-08 3.966903E-14 
2.014000E+03 1.098384E+03 2.459404E-03 4.846951E-08 6.214967E-14 
2.014000E+03 1.102740E+03 3.098731E-03 6.066120E-08 9.731876E-14 
2.014000E+03 1.107019E+03 3.900991E-03 7.590300E-08 1.523259E-13 
2.014000E+03 1.111561E+03 4.907931E-03 9.495935E-08 2.383476E-13 
2.014000E+03 1.116553E+03 6.172259E-03 1.187874E-07 3.728563E-13 
2.014000E+03 1.121961E+03 7.760322E-03 1.485962E-07 5.831848E-13 
2.014000E+03 1.127671E+03 9.755504E-03 1.859032E-07 9.121024E-13 
2.014000E+03 1.133491E+03 1.226235E-02 2.326214E-07 1.426572E-12 
2.014000E+03 1.139173E+03 1.541162E-02 2.911667E-07 2.231509E-12 
2.014000E+03 1.144449E+03 1.936644E-02 3.645950E-07 3.491423E-12 
2.014000E+03 1.149085E+03 2.432999E-02 4.567749E-07 5.464493E-12 
2.014000E+03 1.152935E+03 3.055521E-02 5.726053E-07 8.556251E-12 
2.014000E+03 1.155973E+03 3.835725E-02 7.182865E-07 1.340420E-11 
2.014000E+03 1.158298E+03 4.812941E-02 9.016578E-07 2.101117E-11 
2.014000E+03 1.160092E+03 6.036353E-02 1.132615E-06 3.295552E-11 
2.014000E+03 1.161558E+03 7.567550E-02 1.423620E-06 5.172207E-11 
2.014000E+03 1.162858E+03 9.483689E-02 1.790320E-06 8.122268E-11 
2.014000E+03 1.164092E+03 1.188141E-01 2.252271E-06 1.276134E-10 
2.014000E+03 1.165289E+03 1.488163E-01 2.833804E-06 2.005743E-10 
2.014000E+03 1.166430E+03 1.863558E-01 3.565057E-06 3.153095E-10 
2.014000E+03 1.167460E+03 2.333217E-01 4.483318E-06 4.956694E-10 
2.014000E+03 1.168343E+03 2.920734E-01 5.634792E-06 7.790227E-10 
2.014000E+03 1.168949E+03 3.655512E-01 7.080754E-06 1.224104E-09 
2.014000E+03 1.169282E+03 4.574246E-01 8.902453E-06 1.923592E-09 
2.014000E+03 1.169555E+03 5.722931E-01 1.119811E-05 3.023421E-09 
2.014001E+03 1.169798E+03 7.159086E-01 1.409205E-05 4.753495E-09 
2.014001E+03 1.170009E+03 8.954603E-01 1.774222E-05 7.476249E-09 
2.014001E+03 1.170189E+03 1.119935E+00 2.235021E-05 1.176363E-08 
2.014001E+03 1.170339E+03 1.400563E+00 2.817458E-05 1.851945E-08 
2.014001E+03 1.170464E+03 1.751387E+00 3.554847E-05 2.917440E-08 
2.014002E+03 1.170570E+03 2.189955E+00 4.490300E-05 4.599787E-08 
2.014002E+03 1.170659E+03 2.738208E+00 5.679887E-05 7.259840E-08 
2.014003E+03 1.170736E+03 3.423569E+00 7.196998E-05 1.147304E-07 
2.014004E+03 1.170800E+03 4.280318E+00 9.138421E-05 1.816020E-07 
2.014005E+03 1.170853E+03 5.351301E+00 1.163292E-04 2.880088E-07 
2.014006E+03 1.170896E+03 6.690080E+00 1.485342E-04 4.578398E-07 
2.014007E+03 1.170931E+03 8.363603E+00 1.903430E-04 7.298827E-07 
2.014009E+03 1.170958E+03 1.045556E+01 2.449631E-04 1.167517E-06 
2.014011E+03 1.170979E+03 1.307054E+01 3.168215E-04 1.875031E-06 
2.014014E+03 1.170996E+03 1.627655E+01 4.115224E-04 3.001718E-06 
2.014017E+03 1.171007E+03 1.948260E+01 5.275626E-04 4.446106E-06 
2.014019E+03 1.171015E+03 2.268866E+01 6.498365E-04 6.225261E-06 
2.014022E+03 1.171021E+03 2.589474E+01 7.781601E-04 8.355747E-06 
2.014025E+03 1.171025E+03 2.910083E+01 9.123560E-04 1.085364E-05 
2.014028E+03 1.171029E+03 3.230694E+01 1.052252E-03 1.373455E-05 
2.014030E+03 1.171032E+03 3.551305E+01 1.197680E-03 1.701362E-05 
2.014033E+03 1.171035E+03 3.871917E+01 1.348476E-03 2.070555E-05 
2.014036E+03 1.171037E+03 4.192529E+01 1.504480E-03 2.482459E-05 
2.014039E+03 1.171038E+03 4.513142E+01 1.665534E-03 2.938457E-05 
2.014041E+03 1.171040E+03 4.833755E+01 1.831486E-03 3.439891E-05 
2.014044E+03 1.171041E+03 5.154368E+01 2.002185E-03 3.988059E-05 
2.014047E+03 1.171042E+03 5.474982E+01 2.177486E-03 4.584222E-05 
2.014049E+03 1.171043E+03 5.795596E+01 2.357246E-03 5.229601E-05 
2.014052E+03 1.171044E+03 6.116211E+01 2.541325E-03 5.925378E-05 
2.014055E+03 1.171044E+03 6.436825E+01 2.729587E-03 6.672698E-05 
2.014058E+03 1.171045E+03 6.757440E+01 2.921898E-03 7.472670E-05 
2.014060E+03 1.171045E+03 7.078054E+01 3.118129E-03 8.326368E-05 
2.014063E+03 1.171046E+03 7.398669E+01 3.318153E-03 9.234828E-05 
2.014066E+03 1.171046E+03 7.719284E+01 3.521846E-03 1.019906E-04 
2.014069E+03 1.171046E+03 8.039899E+01 3.729087E-03 1.122003E-04 
2.014071E+03 1.171047E+03 8.360514E+01 3.939758E-03 1.229867E-04 
2.014074E+03 1.171047E+03 8.681129E+01 4.153743E-03 1.343591E-04 
2.014077E+03 1.171047E+03 9.001745E+01 4.370931E-03 1.463260E-04 
2.014080E+03 1.171047E+03 9.322360E+01 4.591210E-03 1.588961E-04 
2.014082E+03 1.171048E+03 9.642975E+01 4.814474E-03 1.720774E-04 
2.014085E+03 1.171048E+03 9.945290E+01 5.031800E-03 1.850674E-04 
2.014088E+03 1.159434E+03 1.026273E+02 5.565933E-03 2.003061E-04 
2.014090E+03 1.146071E+03 1.057650E+02 6.058434E-03 2.168931E-04 
2.014093E+03 1.132502E+03 1.088657E+02 6.534826E-03 2.347845E-04 
2.014096E+03 1.118897E+03 1.119290E+02 6.998199E-03 2.539445E-04 
2.014099E+03 1.105302E+03 1.149552E+02 7.448575E-03 2.743376E-04 
2.014101E+03 1.091735E+03 1.179442E+02 7.885531E-03 2.959270E-04 
2.014104E+03 1.078202E+03 1.208961E+02 8.308685E-03 3.186750E-04 
2.014107E+03 1.064706E+03 1.238111E+02 8.717804E-03 3.425430E-04 
2.014110E+03 1.051248E+03 1.266893E+02 9.112807E-03 3.674925E-04 
2.014112E+03 1.037827E+03 1.295307E+02 9.493744E-03 3.934850E-04 
2.014115E+03 1.024442E+03 1.323355E+02 9.860767E-03 4.204823E-04 
2.014118E+03 1.011092E+03 1.351037E+02 1.021410E-02 4.484470E-04 
2.014121E+03 9.977758E+02 1.378355E+02 1.055403E-02 4.773423E-04 
2.014123E+03 9.844917E+02 1.405309E+02 1.088087E-02 5.071325E-04 
2.014126E+03 9.712386E+02 1.431900E+02 1.119496E-02 5.377827E-04 
2.014129E+03 9.580151E+02 1.458129E+02 1.149665E-02 5.692588E-04 
2.014131E+03 9.448199E+02 1.483997E+02 1.178629E-02 6.015279E-04 
2.014134E+03 9.316519E+02 1.509504E+02 1.206423E-02 6.345579E-04 
2.014137E+03 9.185098E+02 1.534651E+02 1.233082E-02 6.683179E-04 
2.014140E+03 9.053925E+02 1.559439E+02 1.258638E-02 7.027775E-04 
2.014142E+03 8.922989E+02 1.583869E+02 1.283124E-02 7.379075E-04 
2.014145E+03 8.792281E+02 1.607941E+02 1.306569E-02 7.736794E-04 
2.014148E+03 8.661790E+02 1.631656E+02 1.329003E-02 8.100655E-04 
2.014151E+03 8.531507E+02 1.655014E+02 1.350453E-02 8.470389E-04 
2.014153E+03 8.401423E+02 1.678016E+02 1.370945E-02 8.845734E-04 
2.014156E+03 8.271529E+02 1.700662E+02 1.390503E-02 9.226433E-04 
2.014159E+03 8.141818E+02 1.722953E+02 1.409150E-02 9.612237E-04 
2.014162E+03 8.012283E+02 1.744889E+02 1.426906E-02 1.000290E-03 
2.014162E+03 8.009829E+02 1.745310E+02 1.431607E-02 1.001042E-03 
2.014164E+03 8.091982E+02 1.767465E+02 1.374305E-02 1.038668E-03 
2.014167E+03 8.222963E+02 1.789978E+02 1.359551E-02 1.075891E-03 
2.014170E+03 8.361069E+02 1.812869E+02 1.355395E-02 1.113000E-03 
2.014173E+03 8.502158E+02 1.836147E+02 1.357021E-02 1.150153E-03 
2.014175E+03 8.644700E+02 1.859815E+02 1.365962E-02 1.187551E-03 
2.014178E+03 8.789261E+02 1.883879E+02 1.379472E-02 1.225319E-03 
2.014181E+03 8.935067E+02 1.908341E+02 1.396315E-02 1.263548E-03 
2.014184E+03 9.081328E+02 1.933205E+02 1.416441E-02 1.302328E-03 
2.014186E+03 9.228505E+02 1.958471E+02 1.439760E-02 1.341746E-03 
2.014189E+03 9.376908E+02 1.984144E+02 1.465664E-02 1.381874E-03 
2.014192E+03 9.526314E+02 2.010225E+02 1.493665E-02 1.422768E-03 
2.014194E+03 9.676641E+02 2.036718E+02 1.523526E-02 1.464480E-03 
2.014197E+03 9.827873E+02 2.063626E+02 1.555127E-02 1.507057E-03 
2.014200E+03 9.979853E+02 2.090949E+02 1.588412E-02 1.550545E-03 
2.014203E+03 1.013267E+03 2.118691E+02 1.623530E-02 1.594995E-03 
2.014205E+03 1.028661E+03 2.146854E+02 1.660615E-02 1.640460E-03 
2.014208E+03 1.044176E+03 2.175442E+02 1.699635E-02 1.686994E-03 
2.014211E+03 1.059820E+03 2.204458E+02 1.740622E-02 1.734650E-03 
2.014214E+03 1.075606E+03 2.233907E+02 1.783697E-02 1.783485E-03 
2.014216E+03 1.091552E+03 2.263792E+02 1.829080E-02 1.833562E-03 
2.014219E+03 1.107687E+03 2.294119E+02 1.877114E-02 1.884955E-03 
2.014222E+03 1.124048E+03 2.324893E+02 1.928330E-02 1.937749E-03 
2.014225E+03 1.140699E+03 2.356124E+02 1.983563E-02 1.992056E-03 
2.014227E+03 1.157742E+03 2.387821E+02 2.044215E-02 2.048024E-03 
2.014230E+03 1.175398E+03 2.420002E+02 2.112976E-02 2.105874E-03 
2.014233E+03 1.194480E+03 2.452705E+02 2.197392E-02 2.166035E-03 
2.014236E+03 1.213453E+03 2.485927E+02 2.295922E-02 2.228894E-03 
2.014238E+03 1.231172E+03 2.519635E+02 2.426679E-02 2.295333E-03 
2.014241E+03 1.249134E+03 2.553835E+02 2.550915E-02 2.365173E-03 
2.014244E+03 1.264016E+03 2.588441E+02 2.502102E-02 2.433677E-03 
2.014247E+03 1.278881E+03 2.623455E+02 2.455430E-02 2.500903E-03 
2.014247E+03 1.279199E+03 2.624199E+02 2.455337E-02 2.502331E-03 
2.014249E+03 1.280939E+03 2.659269E+02 2.394012E-02 2.567875E-03 
2.014252E+03 1.282302E+03 2.694377E+02 2.332587E-02 2.631738E-03 
2.014255E+03 1.283598E+03 2.729520E+02 2.273637E-02 2.693987E-03 
2.014258E+03 1.284868E+03 2.764697E+02 2.217834E-02 2.754708E-03 
2.014260E+03 1.286126E+03 2.799910E+02 2.165378E-02 2.813992E-03 
2.014263E+03 1.287376E+03 2.835156E+02 2.116316E-02 2.871934E-03 
2.014266E+03 1.288621E+03 2.870437E+02 2.070635E-02 2.928625E-03 
2.014268E+03 1.289865E+03 2.905751E+02 2.028296E-02 2.984157E-03 
2.014271E+03 1.291108E+03 2.941100E+02 1.989248E-02 3.038619E-03 
2.014274E+03 1.292351E+03 2.976482E+02 1.953438E-02 3.092101E-03 
2.014277E+03 1.293595E+03 3.011899E+02 1.920809E-02 3.144690E-03 
2.014279E+03 1.294840E+03 3.047350E+02 1.891311E-02 3.196472E-03 
2.014282E+03 1.296086E+03 3.082835E+02 1.864893E-02 3.247530E-03 
2.014285E+03 1.297335E+03 3.118354E+02 1.841511E-02 3.297947E-03 
2.014288E+03 1.298585E+03 3.153907E+02 1.821127E-02 3.347807E-03 
2.014290E+03 1.299838E+03 3.189495E+02 1.803709E-02 3.397190E-03 
2.014293E+03 1.301094E+03 3.225117E+02 1.789230E-02 3.446176E-03 
2.014296E+03 1.302352E+03 3.260773E+02 1.777674E-02 3.494847E-03 
2.014299E+03 1.303613E+03 3.296464E+02 1.769032E-02 3.543280E-03 
2.014301E+03 1.304878E+03 3.332190E+02 1.763304E-02 3.591557E-03 
2.014304E+03 1.306146E+03 3.367950E+02 1.760504E-02 3.639757E-03 
2.014307E+03 1.307417E+03 3.403745E+02 1.760656E-02 3.687961E-03 
2.014310E+03 1.308693E+03 3.439575E+02 1.763799E-02 3.736251E-03 
2.014312E+03 1.309973E+03 3.475440E+02 1.769989E-02 3.784711E-03 
2.014315E+03 1.311258E+03 3.511341E+02 1.779304E-02 3.833425E-03 
2.014318E+03 1.312547E+03 3.547276E+02 1.791845E-02 3.882483E-03 
2.014320E+03 1.313843E+03 3.583247E+02 1.807746E-02 3.931977E-03 
2.014323E+03 1.315144E+03 3.619254E+02 1.827180E-02 3.982002E-03 
2.014326E+03 1.316453E+03 3.655297E+02 1.850373E-02 4.032663E-03 
2.014329E+03 1.317770E+03 3.691375E+02 1.877622E-02 4.084069E-03 
2.014329E+03 1.317807E+03 3.692117E+02 1.888683E-02 4.085132E-03 
2.014332E+03 1.313121E+03 3.728068E+02 1.896860E-02 4.137065E-03 
2.014334E+03 1.308668E+03 3.763897E+02 1.925572E-02 4.189784E-03 
2.014337E+03 1.304276E+03 3.799606E+02 1.962114E-02 4.243504E-03 
2.014340E+03 1.299929E+03 3.835196E+02 2.007285E-02 4.298460E-03 
2.014342E+03 1.295649E+03 3.870669E+02 2.063810E-02 4.354964E-03 
2.014345E+03 1.291371E+03 3.906025E+02 2.135813E-02 4.413440E-03 
2.014348E+03 1.287057E+03 3.941263E+02 2.237294E-02 4.474694E-03 
2.014351E+03 1.282869E+03 3.976386E+02 2.422711E-02 4.541024E-03 
2.014353E+03 1.278510E+03 4.011390E+02 2.423124E-02 4.607365E-03 
2.014356E+03 1.274032E+03 4.046271E+02 2.422426E-02 4.673688E-03 
2.014359E+03 1.269546E+03 4.081029E+02 2.422627E-02 4.740016E-03 
2.014362E+03 1.265059E+03 4.115664E+02 2.423914E-02 4.806379E-03 
2.014364E+03 1.260573E+03 4.150177E+02 2.426334E-02 4.872808E-03 
2.014367E+03 1.256086E+03 4.184567E+02 2.429852E-02 4.939334E-03 
2.014370E+03 1.251598E+03 4.218834E+02 2.434354E-02 5.005983E-03 
2.014373E+03 1.247112E+03 4.252978E+02 2.440028E-02 5.072787E-03 
2.014375E+03 1.242628E+03 4.286999E+02 2.446914E-02 5.139780E-03 
2.014378E+03 1.238147E+03 4.320898E+02 2.455015E-02 5.206995E-03 
2.014381E+03 1.233668E+03 4.354674E+02 2.464332E-02 5.274464E-03 
2.014384E+03 1.229192E+03 4.388327E+02 2.474873E-02 5.342223E-03 
2.014386E+03 1.224718E+03 4.421858E+02 2.486655E-02 5.410304E-03 
2.014389E+03 1.220246E+03 4.455267E+02 2.499699E-02 5.478742E-03 
2.014392E+03 1.215777E+03 4.488553E+02 2.514035E-02 5.547572E-03 
2.014394E+03 1.211310E+03 4.521717E+02 2.529700E-02 5.616832E-03 
2.014397E+03 1.206846E+03 4.554758E+02 2.546736E-02 5.686557E-03 
2.014400E+03 1.202385E+03 4.587678E+02 2.565194E-02 5.756789E-03 
2.014403E+03 1.197926E+03 4.620475E+02 2.585134E-02 5.827566E-03 
2.014405E+03 1.193471E+03 4.653151E+02 2.606626E-02 5.898931E-03 
2.014408E+03 1.189018E+03 4.685704E+02 2.629750E-02 5.970930E-03 
2.014411E+03 1.184570E+03 4.718136E+02 2.654602E-02 6.043609E-03 
2.014414E+03 1.180124E+03 4.750446E+02 2.681292E-02 6.117019E-03 
2.014414E+03 1.180034E+03 4.751132E+02 2.699369E-02 6.118588E-03 
2.014416E+03 1.176849E+03 4.783352E+02 2.742222E-02 6.193666E-03 
2.014419E+03 1.173173E+03 4.815472E+02 2.781873E-02 6.269829E-03 
2.014422E+03 1.169372E+03 4.847488E+02 2.816256E-02 6.346934E-03 
2.014425E+03 1.165522E+03 4.879398E+02 2.849328E-02 6.424945E-03 
2.014427E+03 1.161649E+03 4.911202E+02 2.882686E-02 6.503868E-03 
2.014430E+03 1.157766E+03 4.942900E+02 2.917149E-02 6.583735E-03 
2.014433E+03 1.153880E+03 4.974492E+02 2.953218E-02 6.664590E-03 
2.014436E+03 1.149995E+03 5.005977E+02 2.991265E-02 6.746487E-03 
2.014438E+03 1.146112E+03 5.037356E+02 3.031630E-02 6.829488E-03 
2.014441E+03 1.142232E+03 5.068628E+02 3.074676E-02 6.913668E-03 
2.014444E+03 1.138357E+03 5.099795E+02 3.120838E-02 6.999112E-03 
2.014447E+03 1.134489E+03 5.130855E+02 3.170678E-02 7.085920E-03 
2.014449E+03 1.130630E+03 5.161810E+02 3.224966E-02 7.174215E-03 
2.014452E+03 1.126783E+03 5.192660E+02 3.284835E-02 7.264149E-03 
2.014455E+03 1.122956E+03 5.223405E+02 3.352137E-02 7.355926E-03 
2.014458E+03 1.119179E+03 5.254046E+02 3.431175E-02 7.449866E-03 
2.014460E+03 1.115369E+03 5.284583E+02 3.521928E-02 7.546291E-03 
2.014463E+03 1.111543E+03 5.315016E+02 3.637356E-02 7.645877E-03 
2.014466E+03 1.107809E+03 5.345346E+02 3.871501E-02 7.751872E-03 
2.014468E+03 1.103959E+03 5.375571E+02 3.885519E-02 7.858252E-03 
2.014471E+03 1.100014E+03 5.405687E+02 3.893788E-02 7.964858E-03 
2.014474E+03 1.096061E+03 5.435696E+02 3.901541E-02 8.071677E-03 
2.014477E+03 1.092104E+03 5.465596E+02 3.909300E-02 8.178707E-03 
2.014479E+03 1.088147E+03 5.495388E+02 3.917214E-02 8.285955E-03 
2.014482E+03 1.084190E+03 5.525071E+02 3.925346E-02 8.393425E-03 
2.014485E+03 1.080234E+03 5.554647E+02 3.933730E-02 8.501125E-03 
2.014488E+03 1.076277E+03 5.584113E+02 3.942385E-02 8.609061E-03 
2.014490E+03 1.072321E+03 5.613472E+02 3.951329E-02 8.717243E-03 
2.014493E+03 1.068366E+03 5.642722E+02 3.960576E-02 8.825677E-03 
2.014496E+03 1.064411E+03 5.671864E+02 3.970144E-02 8.934374E-03 
2.014496E+03 1.064331E+03 5.672463E+02 3.991363E-02 8.936619E-03 
2.014499E+03 1.065058E+03 5.701623E+02 4.073610E-02 9.048149E-03 
2.014501E+03 1.065123E+03 5.730784E+02 4.124193E-02 9.161063E-03 
2.014504E+03 1.065008E+03 5.759943E+02 4.159461E-02 9.274943E-03 
2.014507E+03 1.064819E+03 5.789096E+02 4.188466E-02 9.389617E-03 
2.014510E+03 1.064606E+03 5.818243E+02 4.215647E-02 9.505035E-03 
2.014512E+03 1.064384E+03 5.847384E+02 4.242256E-02 9.621182E-03 
2.014515E+03 1.064157E+03 5.876519E+02 4.268678E-02 9.738052E-03 
2.014518E+03 1.063927E+03 5.905648E+02 4.295074E-02 9.855644E-03 
2.014521E+03 1.063695E+03 5.934770E+02 4.321526E-02 9.973961E-03 
2.014523E+03 1.063461E+03 5.963886E+02 4.348084E-02 1.009301E-02 
2.014526E+03 1.063225E+03 5.992996E+02 4.374780E-02 1.021278E-02 
2.014529E+03 1.062989E+03 6.022099E+02 4.401640E-02 1.033329E-02 
2.014531E+03 1.062752E+03 6.051196E+02 4.428683E-02 1.045454E-02 
2.014534E+03 1.062514E+03 6.080286E+02 4.455927E-02 1.057654E-02 
2.014537E+03 1.062275E+03 6.109369E+02 4.483387E-02 1.069929E-02 
2.014540E+03 1.062036E+03 6.138446E+02 4.511076E-02 1.082279E-02 
2.014542E+03 1.061796E+03 6.167516E+02 4.539010E-02 1.094706E-02 
2.014545E+03 1.061556E+03 6.196580E+02 4.567200E-02 1.107211E-02 
2.014548E+03 1.061316E+03 6.225637E+02 4.595660E-02 1.119793E-02 
2.014551E+03 1.061075E+03 6.254688E+02 4.624404E-02 1.132454E-02 
2.014553E+03 1.060835E+03 6.283732E+02 4.653444E-02 1.145194E-02 
2.014556E+03 1.060594E+03 6.312770E+02 4.682795E-02 1.158015E-02 
2.014559E+03 1.060353E+03 6.341801E+02 4.712469E-02 1.170917E-02 
2.014562E+03 1.060112E+03 6.370825E+02 4.742482E-02 1.183901E-02 
2.014564E+03 1.059872E+03 6.399843E+02 4.772848E-02 1.196969E-02 
2.014567E+03 1.059631E+03 6.428854E+02 4.803583E-02 1.210120E-02 
2.014570E+03 1.059391E+03 6.457858E+02 4.834702E-02 1.223357E-02 
2.014573E+03 1.059150E+03 6.486856E+02 4.866224E-02 1.236680E-02 
2.014575E+03 1.058910E+03 6.515848E+02 4.898164E-02 1.250090E-02 
2.014578E+03 1.058670E+03 6.544832E+02 4.930544E-02 1.263589E-02 
2.014581E+03 1.058431E+03 6.573811E+02 4.963382E-02 1.277178E-02 
2.014581E+03 1.058426E+03 6.574426E+02 4.985437E-02 1.277468E-02 
2.014584E+03 1.062470E+03 6.603515E+02 5.258889E-02 1.291866E-02 
2.014586E+03 1.065239E+03 6.632679E+02 5.443978E-02 1.306771E-02 
2.014589E+03 1.067718E+03 6.661912E+02 5.602513E-02 1.322110E-02 
2.014592E+03 1.070063E+03 6.691209E+02 5.750271E-02 1.337853E-02 
2.014595E+03 1.072338E+03 6.720568E+02 5.893157E-02 1.353988E-02 
2.014597E+03 1.074573E+03 6.749988E+02 6.033742E-02 1.370507E-02 
2.014600E+03 1.076784E+03 6.779469E+02 6.173169E-02 1.387409E-02 
2.014603E+03 1.078980E+03 6.809010E+02 6.311916E-02 1.404690E-02 
2.014605E+03 1.081165E+03 6.838610E+02 6.450146E-02 1.422349E-02 
2.014608E+03 1.083342E+03 6.868270E+02 6.587875E-02 1.440386E-02 
2.014611E+03 1.085512E+03 6.897990E+02 6.725052E-02 1.458798E-02 
2.014614E+03 1.087677E+03 6.927769E+02 6.861600E-02 1.477584E-02 
2.014616E+03 1.089838E+03 6.957607E+02 6.997434E-02 1.496742E-02 
2.014619E+03 1.091995E+03 6.987504E+02 7.132472E-02 1.516270E-02 
2.014622E+03 1.094148E+03 7.017461E+02 7.266636E-02 1.536165E-02 
2.014625E+03 1.096299E+03 7.047476E+02 7.399855E-02 1.556424E-02 
2.014627E+03 1.098447E+03 7.077549E+02 7.532066E-02 1.577046E-02 
2.014630E+03 1.100593E+03 7.107682E+02 7.663214E-02 1.598027E-02 
2.014633E+03 1.102736E+03 7.137873E+02 7.793249E-02 1.619363E-02 
2.014636E+03 1.104878E+03 7.168123E+02 7.922131E-02 1.641053E-02 
2.014638E+03 1.107017E+03 7.198432E+02 8.049821E-02 1.663092E-02 
2.014641E+03 1.109156E+03 7.228799E+02 8.176290E-02 1.685478E-02 
2.014644E+03 1.111292E+03 7.259224E+02 8.301510E-02 1.708206E-02 
2.014647E+03 1.113427E+03 7.289708E+02 8.425459E-02 1.731274E-02 
2.014649E+03 1.115561E+03 7.320251E+02 8.548120E-02 1.754677E-02 
2.014652E+03 1.117694E+03 7.350851E+02 8.669478E-02 1.778413E-02 
2.014655E+03 1.119826E+03 7.381511E+02 8.789521E-02 1.802477E-02 
2.014657E+03 1.121956E+03 7.412228E+02 8.908242E-02 1.826867E-02 
2.014660E+03 1.124086E+03 7.443004E+02 9.025634E-02 1.851578E-02 
2.014663E+03 1.126215E+03 7.473838E+02 9.141694E-02 1.876606E-02 
2.014666E+03 1.128343E+03 7.504730E+02 9.256420E-02 1.901949E-02 
2.014666E+03 1.128388E+03 7.505386E+02 9.273182E-02 1.902488E-02 
2.014668E+03 1.132837E+03 7.536402E+02 9.625563E-02 1.928841E-02 
2.014671E+03 1.136511E+03 7.567518E+02 9.913659E-02 1.955983E-02 
2.014674E+03 1.139948E+03 7.598728E+02 1.017800E-01 1.983849E-02 
2.014677E+03 1.143275E+03 7.630029E+02 1.043184E-01 2.012410E-02 
2.014679E+03 1.146543E+03 7.661420E+02 1.067982E-01 2.041650E-02 
2.014682E+03 1.149776E+03 7.692899E+02 1.092388E-01 2.071558E-02 
2.014685E+03 1.152988E+03 7.724466E+02 1.116484E-01 2.102125E-02 
2.014688E+03 1.156186E+03 7.756120E+02 1.140304E-01 2.133345E-02 
2.014690E+03 1.159374E+03 7.787862E+02 1.163857E-01 2.165210E-02 
2.014693E+03 1.162555E+03 7.819691E+02 1.187142E-01 2.197712E-02 
2.014696E+03 1.165729E+03 7.851607E+02 1.210154E-01 2.230844E-02 
2.014699E+03 1.168899E+03 7.883610E+02 1.232885E-01 2.264599E-02 
2.014701E+03 1.172065E+03 7.915699E+02 1.255326E-01 2.298968E-02 
2.014704E+03 1.175228E+03 7.947875E+02 1.277471E-01 2.333943E-02 
2.014707E+03 1.178387E+03 7.980138E+02 1.299311E-01 2.369516E-02 
2.014710E+03 1.181544E+03 8.012487E+02 1.320842E-01 2.405679E-02 
2.014712E+03 1.184698E+03 8.044922E+02 1.342059E-01 2.442423E-02 
2.014715E+03 1.187735E+03 8.077440E+02 1.332722E-01 2.478910E-02 
2.014718E+03 1.190927E+03 8.110046E+02 1.340497E-01 2.515611E-02 
2.014721E+03 1.194019E+03 8.142737E+02 1.351165E-01 2.552604E-02 
2.014723E+03 1.197122E+03 8.175512E+02 1.363758E-01 2.589942E-02 
2.014726E+03 1.200238E+03 8.208373E+02 1.377606E-01 2.627659E-02 
2.014729E+03 1.203359E+03 8.241319E+02 1.392257E-01 2.665777E-02 
2.014731E+03 1.206483E+03 8.274351E+02 1.407452E-01 2.704310E-02 
2.014734E+03 1.209607E+03 8.307468E+02 1.423025E-01 2.743271E-02 
2.014737E+03 1.212732E+03 8.340671E+02 1.438855E-01 2.782664E-02 
2.014740E+03 1.215858E+03 8.373959E+02 1.454856E-01 2.822496E-02 
2.014742E+03 1.218983E+03 8.407333E+02 1.470959E-01 2.862769E-02 
2.014745E+03 1.222108E+03 8.440793E+02 1.487111E-01 2.903484E-02 
2.014748E+03 1.225233E+03 8.474338E+02 1.503268E-01 2.944641E-02 
2.014748E+03 1.225301E+03 8.475027E+02 1.503232E-01 2.945487E-02 
2.014751E+03 1.229901E+03 8.508700E+02 1.509620E-01 2.986818E-02 
2.014753E+03 1.234912E+03 8.542510E+02 1.518802E-01 3.028400E-02 
2.014756E+03 1.240034E+03 8.576460E+02 1.528607E-01 3.070251E-02 
2.014759E+03 1.245208E+03 8.610552E+02 1.538521E-01 3.112374E-02 
2.014762E+03 1.250412E+03 8.644787E+02 1.548388E-01 3.154766E-02 
2.014764E+03 1.255633E+03 8.679164E+02 1.558151E-01 3.197426E-02 
2.014767E+03 1.260866E+03 8.713684E+02 1.567786E-01 3.240350E-02 
2.014770E+03 1.266107E+03 8.748349E+02 1.577284E-01 3.283534E-02 
2.014773E+03 1.271353E+03 8.783156E+02 1.586642E-01 3.326973E-02 
2.014775E+03 1.276604E+03 8.818108E+02 1.595860E-01 3.370666E-02 
2.014778E+03 1.281857E+03 8.853203E+02 1.604941E-01 3.414607E-02 
2.014781E+03 1.287112E+03 8.888442E+02 1.613886E-01 3.458792E-02 
2.014784E+03 1.292369E+03 8.923826E+02 1.622700E-01 3.503219E-02 
2.014786E+03 1.297627E+03 8.959353E+02 1.631383E-01 3.547884E-02 
2.014789E+03 1.302887E+03 8.995024E+02 1.639940E-01 3.592783E-02 
2.014792E+03 1.308147E+03 9.030839E+02 1.648372E-01 3.637913E-02 
2.014794E+03 1.313407E+03 9.066798E+02 1.656682E-01 3.683271E-02 
2.014797E+03 1.318669E+03 9.102901E+02 1.664871E-01 3.728853E-02 
2.014800E+03 1.323930E+03 9.139148E+02 1.672942E-01 3.774655E-02 
2.014803E+03 1.329193E+03 9.175540E+02 1.680895E-01 3.820676E-02 
2.014805E+03 1.334455E+03 9.212075E+02 1.688734E-01 3.866911E-02 
2.014808E+03 1.339718E+03 9.248755E+02 1.696459E-01 3.913357E-02 
2.014811E+03 1.344981E+03 9.285578E+02 1.704071E-01 3.960012E-02 
2.014814E+03 1.350244E+03 9.322546E+02 1.711572E-01 4.006872E-02 
2.014816E+03 1.355508E+03 9.359658E+02 1.718963E-01 4.053935E-02 
2.014819E+03 1.360772E+03 9.396914E+02 1.726246E-01 4.101197E-02 
2.014822E+03 1.366035E+03 9.434314E+02 1.733420E-01 4.148655E-02 
2.014825E+03 1.371299E+03 9.471858E+02 1.740489E-01 4.196307E-02 
2.014827E+03 1.376564E+03 9.509546E+02 1.747451E-01 4.244150E-02 
2.014830E+03 1.381828E+03 9.547378E+02 1.754309E-01 4.292180E-02 
2.014833E+03 1.387092E+03 9.585355E+02 1.761063E-01 4.340396E-02 
2.014833E+03 1.387204E+03 9.586161E+02 1.759994E-01 4.341419E-02 
2.014836E+03 1.390538E+03 9.624232E+02 1.737183E-01 4.388980E-02 
2.014838E+03 1.394714E+03 9.662417E+02 1.718390E-01 4.436027E-02 
2.014841E+03 1.399133E+03 9.700723E+02 1.700774E-01 4.482592E-02 
2.014844E+03 1.403666E+03 9.739154E+02 1.683581E-01 4.528686E-02 
2.014847E+03 1.408266E+03 9.777710E+02 1.666663E-01 4.574317E-02 
2.014849E+03 1.412909E+03 9.816393E+02 1.650016E-01 4.619492E-02 
2.014852E+03 1.417582E+03 9.855205E+02 1.633669E-01 4.664219E-02 
2.014855E+03 1.422276E+03 9.894144E+02 1.617658E-01 4.708508E-02 
2.014858E+03 1.426984E+03 9.933213E+02 1.602011E-01 4.752369E-02 
2.014860E+03 1.431705E+03 9.972411E+02 1.586752E-01 4.795812E-02 
2.014863E+03 1.436434E+03 1.001174E+03 1.571900E-01 4.838848E-02 
2.014866E+03 1.441169E+03 1.005120E+03 1.557466E-01 4.881489E-02 
2.014868E+03 1.445910E+03 1.009078E+03 1.543460E-01 4.923747E-02 
2.014871E+03 1.450655E+03 1.013050E+03 1.529887E-01 4.965633E-02 
2.014874E+03 1.455404E+03 1.017035E+03 1.516748E-01 5.007159E-02 
2.014877E+03 1.460155E+03 1.021032E+03 1.504045E-01 5.048337E-02 
2.014879E+03 1.464908E+03 1.025043E+03 1.491776E-01 5.089180E-02 
2.014882E+03 1.469664E+03 1.029067E+03 1.479937E-01 5.129698E-02 
2.014885E+03 1.474421E+03 1.033103E+03 1.468524E-01 5.169904E-02 
2.014888E+03 1.479180E+03 1.037153E+03 1.457531E-01 5.209810E-02 
2.014890E+03 1.483940E+03 1.041216E+03 1.446953E-01 5.249425E-02 
2.014893E+03 1.488701E+03 1.045292E+03 1.436783E-01 5.288762E-02 
2.014896E+03 1.493463E+03 1.049381E+03 1.427013E-01 5.327831E-02 
2.014899E+03 1.498226E+03 1.053483E+03 1.417635E-01 5.366644E-02 
2.014901E+03 1.502990E+03 1.057598E+03 1.408642E-01 5.405211E-02 
2.014904E+03 1.507755E+03 1.061726E+03 1.400025E-01 5.443541E-02 
2.014907E+03 1.512520E+03 1.065867E+03 1.391776E-01 5.481646E-02 
2.014910E+03 1.517286E+03 1.070021E+03 1.383886E-01 5.519535E-02 
2.014912E+03 1.522053E+03 1.074188E+03 1.376346E-01 5.557217E-02 
2.014915E+03 1.526820E+03 1.078368E+03 1.369147E-01 5.594702E-02 
2.014915E+03 1.526918E+03 1.078454E+03 1.368752E-01 5.595472E-02 
2.014918E+03 1.524154E+03 1.082627E+03 1.361825E-01 5.632757E-02 
2.014921E+03 1.521223E+03 1.086792E+03 1.354355E-01 5.669837E-02 
2.014923E+03 1.518244E+03 1.090949E+03 1.347230E-01 5.706722E-02 
2.014926E+03 1.515242E+03 1.095097E+03 1.340528E-01 5.743424E-02 
2.014929E+03 1.512228E+03 1.099237E+03 1.334231E-01 5.779953E-02 
2.014931E+03 1.509205E+03 1.103369E+03 1.328306E-01 5.816320E-02 
2.014934E+03 1.506177E+03 1.107493E+03 1.322718E-01 5.852534E-02 
2.014937E+03 1.503145E+03 1.111608E+03 1.317437E-01 5.888604E-02 
2.014940E+03 1.500110E+03 1.115715E+03 1.312437E-01 5.924536E-02 
2.014942E+03 1.497073E+03 1.119814E+03 1.307695E-01 5.960339E-02 
2.014945E+03 1.494035E+03 1.123905E+03 1.303193E-01 5.996019E-02 
2.014948E+03 1.490995E+03 1.127987E+03 1.298912E-01 6.031581E-02 
2.014951E+03 1.487955E+03 1.132061E+03 1.294838E-01 6.067032E-02 
2.014953E+03 1.484914E+03 1.136126E+03 1.290956E-01 6.102376E-02 
2.014956E+03 1.481873E+03 1.140183E+03 1.287255E-01 6.137619E-02 
2.014959E+03 1.478831E+03 1.144232E+03 1.283724E-01 6.172766E-02 
2.014962E+03 1.475790E+03 1.148273E+03 1.280351E-01 6.207820E-02 
2.014964E+03 1.472748E+03 1.152305E+03 1.277128E-01 6.242786E-02 
2.014967E+03 1.469706E+03 1.156328E+03 1.274045E-01 6.277667E-02 
2.014970E+03 1.466663E+03 1.160344E+03 1.271095E-01 6.312468E-02 
2.014973E+03 1.463621E+03 1.164351E+03 1.268270E-01 6.347191E-02 
2.014975E+03 1.460579E+03 1.168350E+03 1.265563E-01 6.381840E-02 
2.014978E+03 1.457536E+03 1.172341E+03 1.262968E-01 6.416418E-02 
2.014981E+03 1.454494E+03 1.176323E+03 1.260478E-01 6.450928E-02 
2.014984E+03 1.451452E+03 1.180297E+03 1.258088E-01 6.485373E-02 
2.014986E+03 1.448409E+03 1.184262E+03 1.255791E-01 6.519755E-02 
2.014989E+03 1.445367E+03 1.188219E+03 1.253585E-01 6.554076E-02 
2.014992E+03 1.442325E+03 1.192168E+03 1.251462E-01 6.588339E-02 
2.014994E+03 1.439282E+03 1.196109E+03 1.249420E-01 6.622546E-02 
2.014997E+03 1.436240E+03 1.200041E+03 1.247453E-01 6.656700E-02 
2.015000E+03 1.433198E+03 1.203965E+03 1.245558E-01 6.690801E-02 
2.015000E+03 1.433133E+03 1.204048E+03 1.245369E-01 6.691525E-02 
2.015003E+03 1.431098E+03 1.207966E+03 1.226533E-01 6.725106E-02 
2.015005E+03 1.429551E+03 1.211880E+03 1.210146E-01 6.758238E-02 
2.015008E+03 1.428149E+03 1.215790E+03 1.194418E-01 6.790939E-02 
2.015011E+03 1.426815E+03 1.219697E+03 1.179025E-01 6.823219E-02 
2.015014E+03 1.425521E+03 1.223599E+03 1.163936E-01 6.855086E-02 
2.015016E+03 1.424253E+03 1.227499E+03 1.149181E-01 6.886549E-02 
2.015019E+03 1.423004E+03 1.231395E+03 1.134794E-01 6.917618E-02 
2.015022E+03 1.421767E+03 1.235287E+03 1.120802E-01 6.948304E-02 
2.015025E+03 1.420541E+03 1.239177E+03 1.107227E-01 6.978618E-02 
2.015027E+03 1.419321E+03 1.243063E+03 1.094079E-01 7.008572E-02 
2.015030E+03 1.418107E+03 1.246945E+03 1.081366E-01 7.038178E-02 
2.015033E+03 1.416898E+03 1.250824E+03 1.069088E-01 7.067449E-02 
2.015036E+03 1.415691E+03 1.254700E+03 1.057244E-01 7.096394E-02 
2.015038E+03 1.414488E+03 1.258573E+03 1.045828E-01 7.125027E-02 
2.015041E+03 1.413287E+03 1.262442E+03 1.034835E-01 7.153360E-02 
2.015044E+03 1.412087E+03 1.266308E+03 1.024255E-01 7.181402E-02 