TITLE = ""
VARIABLES ="simulation time, " "Aqueous Volumetric Flux Rate (1)" "Aqueous Volumetric Flux Integral (1)" "Conservation Component Species Flux (total_cr6) Rate (2)" "Conservation Component Species Flux (total_cr6) Integral (2)"
ZONE T="Reference Node Variables" F=POINT
2.014000E+03 -7.877609E+02 -2.156772E-06 0.000000E+00 0.000000E+00
2.014000E+03 -7.877609E+02 -4.852736E-06 1.471380E-11 3.178415E-19
2.014000E+03 -7.877609E+02 -8.222692E-06 3.310604E-11 1.211771E-18
2.014000E+03 -7.877609E+02 -1.243514E-05 5.609634E-11 3.105163E-18
2.014000E+03 -7.877609E+02 -1.770069E-05 8.483421E-11 6.684371E-18
2.014000E+03 -7.877609E+02 -2.428264E-05 1.207565E-10 1.305287E-17
2.014000E+03 -7.877609E+02 -3.251007E-05 1.656594E-10 2.397361E-17
2.014000E+03 -7.877609E+02 -4.279436E-05 2.217880E-10 4.224974E-17
2.014000E+03 -7.877609E+02 -5.564972E-05 2.919487E-10 7.232177E-17
2.014000E+03 -7.877609E+02 -7.171892E-05 3.796496E-10 1.212037E-16
2.014000E+03 -7.877609E+02 -9.180542E-05 4.892755E-10 1.999500E-16
2.014000E+03 -7.877609E+02 -1.169136E-04 6.263079E-10 3.259512E-16
2.014000E+03 -7.877609E+02 -1.482987E-04 7.975981E-10 5.265280E-16
2.014000E+03 -7.877609E+02 -1.875302E-04 1.011711E-09 8.445543E-16
2.014000E+03 -7.877609E+02 -2.365695E-04 1.279351E-09 1.347252E-15
2.014000E+03 -7.877609E+02 -2.978686E-04 1.613900E-09 2.139943E-15
2.014000E+03 -7.877609E+02 -3.744925E-04 2.032085E-09 3.387553E-15
2.014000E+03 -7.877609E+02 -4.702724E-04 2.554816E-09 5.348237E-15
2.014000E+03 -7.877609E+02 -5.899973E-04 3.208225E-09 8.425915E-15
2.014000E+03 -7.877609E+02 -7.396534E-04 4.024983E-09 1.325242E-14
2.014000E+03 -7.877609E+02 -9.267236E-04 5.045923E-09 2.081587E-14
2.014000E+03 -7.877609E+02 -1.160561E-03 6.322087E-09 3.266131E-14
2.014000E+03 -7.877609E+02 -1.452858E-03 7.917275E-09 5.120419E-14
2.014000E+03 -7.877609E+02 -1.818230E-03 9.911233E-09 8.022039E-14
2.014000E+03 -7.877610E+02 -2.274944E-03 1.240364E-08 1.256127E-13
2.014000E+03 -7.877610E+02 -2.845837E-03 1.551908E-08 1.966068E-13
2.014000E+03 -7.877611E+02 -3.559453E-03 1.941328E-08 3.076207E-13
2.014000E+03 -7.877612E+02 -4.451473E-03 2.428087E-08 4.811881E-13
2.014000E+03 -7.877613E+02 -5.566498E-03 3.036511E-08 7.525240E-13
2.014000E+03 -7.877615E+02 -6.960281E-03 3.797001E-08 1.176660E-12
2.014000E+03 -7.877617E+02 -8.702509E-03 4.747554E-08 1.839595E-12
2.014000E+03 -7.877620E+02 -1.088029E-02 5.935650E-08 2.875723E-12
2.014000E+03 -7.877625E+02 -1.360253E-02 7.420621E-08 4.495054E-12
2.014000E+03 -7.877631E+02 -1.700532E-02 9.276603E-08 7.025786E-12
2.014000E+03 -7.877638E+02 -2.125882E-02 1.159622E-07 1.098079E-11
2.014000E+03 -7.877648E+02 -2.657570E-02 1.449517E-07 1.716158E-11
2.014000E+03 -7.877660E+02 -3.322181E-02 1.811799E-07 2.682074E-11
2.014000E+03 -7.877674E+02 -4.152946E-02 2.264514E-07 4.191593E-11
2.014000E+03 -7.877692E+02 -5.191405E-02 2.830193E-07 6.550684E-11
2.014000E+03 -7.877714E+02 -6.489482E-02 3.536959E-07 1.023760E-10
2.014000E+03 -7.877740E+02 -8.112084E-02 4.419899E-07 1.599992E-10
2.014000E+03 -7.877771E+02 -1.014034E-01 5.522769E-07 2.500641E-10
2.014000E+03 -7.877807E+02 -1.267568E-01 6.900108E-07 3.908450E-10
2.014000E+03 -7.877851E+02 -1.584487E-01 8.619845E-07 6.109205E-10
2.014000E+03 -7.877901E+02 -1.980638E-01 1.076653E-06 9.549938E-10
2.014000E+03 -7.877958E+02 -2.475830E-01 1.344527E-06 1.493011E-09
2.014000E+03 -7.878024E+02 -3.094826E-01 1.678662E-06 2.334453E-09
2.014000E+03 -7.878100E+02 -3.868578E-01 2.095249E-06 3.650765E-09
2.014001E+03 -7.878186E+02 -4.835779E-01 2.614341E-06 5.710587E-09
2.014001E+03 -7.878284E+02 -6.044795E-01 3.260728E-06 8.935158E-09
2.014001E+03 -7.878396E+02 -7.556087E-01 4.065014E-06 1.398565E-08
2.014001E+03 -7.878523E+02 -9.445231E-01 5.064907E-06 2.190104E-08
2.014001E+03 -7.878667E+02 -1.180671E+00 6.306816E-06 3.431657E-08
2.014002E+03 -7.878829E+02 -1.475861E+00 7.847792E-06 5.381085E-08
2.014002E+03 -7.879009E+02 -1.844857E+00 9.757948E-06 8.445989E-08
2.014003E+03 -7.879207E+02 -2.306114E+00 1.212347E-05 1.327261E-07
2.014004E+03 -7.879419E+02 -2.882701E+00 1.505043E-05 2.088933E-07
2.014005E+03 -7.879643E+02 -3.603455E+00 1.866953E-05 3.293989E-07
2.014006E+03 -7.879873E+02 -4.504424E+00 2.314214E-05 5.206557E-07
2.014007E+03 -7.880103E+02 -5.630668E+00 2.866769E-05 8.253653E-07
2.014009E+03 -7.880326E+02 -7.038512E+00 3.549263E-05 1.313041E-06
2.014011E+03 -7.880536E+02 -8.798365E+00 4.392101E-05 2.097706E-06
2.014014E+03 -7.880727E+02 -1.095599E+01 5.433586E-05 3.341881E-06
2.014017E+03 -7.880873E+02 -1.311366E+01 6.705833E-05 4.931151E-06
2.014019E+03 -7.880987E+02 -1.527135E+01 7.963375E-05 6.883528E-06
2.014022E+03 -7.881078E+02 -1.742907E+01 9.207970E-05 9.216662E-06
2.014025E+03 -7.881153E+02 -1.958682E+01 1.044080E-04 1.194782E-05
2.014028E+03 -7.881215E+02 -2.174458E+01 1.166267E-04 1.509386E-05
2.014030E+03 -7.881268E+02 -2.390235E+01 1.287418E-04 1.867126E-05
2.014033E+03 -7.881313E+02 -2.606014E+01 1.407579E-04 2.269610E-05
2.014036E+03 -7.881353E+02 -2.821793E+01 1.526783E-04 2.718405E-05
2.014039E+03 -7.881387E+02 -3.037574E+01 1.645060E-04 3.215040E-05
2.014041E+03 -7.881418E+02 -3.253355E+01 1.762434E-04 3.761008E-05
2.014044E+03 -7.881445E+02 -3.469137E+01 1.878924E-04 4.357761E-05
2.014047E+03 -7.881470E+02 -3.684920E+01 1.994551E-04 5.006717E-05
2.014049E+03 -7.881492E+02 -3.900704E+01 2.109329E-04 5.709256E-05
2.014052E+03 -7.881512E+02 -4.116488E+01 2.223274E-04 6.466723E-05
2.014055E+03 -7.881530E+02 -4.332272E+01 2.336398E-04 7.280428E-05
2.014058E+03 -7.881546E+02 -4.548057E+01 2.448714E-04 8.151647E-05
2.014060E+03 -7.881561E+02 -4.763843E+01 2.560234E-04 9.081624E-05
2.014063E+03 -7.881575E+02 -4.979629E+01 2.670966E-04 1.007157E-04
2.014066E+03 -7.881588E+02 -5.195415E+01 2.780921E-04 1.112265E-04
2.014069E+03 -7.881599E+02 -5.411201E+01 2.890107E-04 1.223603E-04
2.014071E+03 -7.881610E+02 -5.626988E+01 2.998533E-04 1.341280E-04
2.014074E+03 -7.881620E+02 -5.842775E+01 3.106205E-04 1.465408E-04
2.014077E+03 -7.881629E+02 -6.058562E+01 3.213132E-04 1.596088E-04
2.014080E+03 -7.881638E+02 -6.274350E+01 3.319319E-04 1.733426E-04
2.014082E+03 -7.881646E+02 -6.490137E+01 3.424772E-04 1.877519E-04
2.014085E+03 -7.881653E+02 -6.693608E+01 3.530260E-04 2.019593E-04
2.014088E+03 -7.818562E+02 -6.907669E+01 3.778833E-04 2.177727E-04
2.014090E+03 -7.757890E+02 -7.120068E+01 4.011941E-04 2.343164E-04
2.014093E+03 -7.697716E+02 -7.330820E+01 4.228577E-04 2.515820E-04
2.014096E+03 -7.637792E+02 -7.539932E+01 4.433654E-04 2.695648E-04
2.014099E+03 -7.578037E+02 -7.747407E+01 4.630583E-04 2.882612E-04
2.014101E+03 -7.518410E+02 -7.953250E+01 4.821632E-04 3.076688E-04
2.014104E+03 -7.458891E+02 -8.157463E+01 5.008322E-04 3.277845E-04
2.014107E+03 -7.399463E+02 -8.360049E+01 5.191692E-04 3.486054E-04
2.014110E+03 -7.340117E+02 -8.561011E+01 5.372468E-04 3.701284E-04
2.014112E+03 -7.280846E+02 -8.760349E+01 5.551167E-04 3.923498E-04
2.014115E+03 -7.221643E+02 -8.958067E+01 5.728167E-04 4.152659E-04
2.014118E+03 -7.162504E+02 -9.154166E+01 5.903751E-04 4.388724E-04
2.014121E+03 -7.103426E+02 -9.348647E+01 6.078130E-04 4.631650E-04
2.014123E+03 -7.044404E+02 -9.541512E+01 6.251469E-04 4.881387E-04
2.014126E+03 -6.985437E+02 -9.732763E+01 6.423894E-04 5.137883E-04
2.014129E+03 -6.926522E+02 -9.922401E+01 6.595507E-04 5.401085E-04
2.014131E+03 -6.867656E+02 -1.011043E+02 6.766391E-04 5.670934E-04
2.014134E+03 -6.808838E+02 -1.029684E+02 6.936610E-04 5.947371E-04
2.014137E+03 -6.750065E+02 -1.048165E+02 7.106221E-04 6.230333E-04
2.014140E+03 -6.691337E+02 -1.066485E+02 7.281324E-04 6.519769E-04
2.014142E+03 -6.632652E+02 -1.084644E+02 7.498588E-04 6.815730E-04
2.014145E+03 -6.574009E+02 -1.102643E+02 7.716505E-04 7.118147E-04
2.014148E+03 -6.515405E+02 -1.120481E+02 7.935102E-04 7.426954E-04
2.014151E+03 -6.456840E+02 -1.138159E+02 8.154400E-04 7.742075E-04
2.014153E+03 -6.398313E+02 -1.155676E+02 8.374417E-04 8.063439E-04
2.014156E+03 -6.339823E+02 -1.173034E+02 8.595164E-04 8.390969E-04
2.014159E+03 -6.281369E+02 -1.190231E+02 8.816652E-04 8.724590E-04
2.014162E+03 -6.222949E+02 -1.207269E+02 9.038888E-04 9.064220E-04
2.014162E+03 -6.221827E+02 -1.207596E+02 9.196038E-04 9.070763E-04
2.014164E+03 -6.285601E+02 -1.224805E+02 7.751993E-04 9.409192E-04
2.014167E+03 -6.338906E+02 -1.242160E+02 7.073354E-04 9.750791E-04
2.014170E+03 -6.390606E+02 -1.259656E+02 6.530151E-04 1.009671E-03
2.014173E+03 -6.441760E+02 -1.277293E+02 6.082358E-04 1.044760E-03
2.014175E+03 -6.492725E+02 -1.295069E+02 5.702333E-04 1.080388E-03
2.014178E+03 -6.543680E+02 -1.312984E+02 5.371594E-04 1.116586E-03
2.014181E+03 -6.594742E+02 -1.331040E+02 5.077658E-04 1.153378E-03
2.014184E+03 -6.646006E+02 -1.349236E+02 4.811897E-04 1.190787E-03
2.014186E+03 -6.697561E+02 -1.367573E+02 4.568200E-04 1.228834E-03
2.014189E+03 -6.749507E+02 -1.386052E+02 4.342130E-04 1.267541E-03
2.014192E+03 -6.801971E+02 -1.404674E+02 4.130405E-04 1.306935E-03
2.014194E+03 -6.855137E+02 -1.423443E+02 3.930564E-04 1.347047E-03
2.014197E+03 -6.909315E+02 -1.442359E+02 3.740768E-04 1.387917E-03
2.014200E+03 -6.965172E+02 -1.461429E+02 3.559743E-04 1.429605E-03
2.014203E+03 -7.025503E+02 -1.480664E+02 3.387317E-04 1.472227E-03
2.014205E+03 -7.082938E+02 -1.500056E+02 3.220958E-04 1.515809E-03
2.014208E+03 -7.134524E+02 -1.519589E+02 3.056955E-04 1.560366E-03
2.014211E+03 -7.187932E+02 -1.539269E+02 2.894119E-04 1.606159E-03
2.014214E+03 -7.248506E+02 -1.559114E+02 2.729999E-04 1.654372E-03
2.014216E+03 -7.294887E+02 -1.579086E+02 2.588415E-04 1.702464E-03
2.014219E+03 -7.341401E+02 -1.599186E+02 2.536925E-04 1.750456E-03
2.014222E+03 -7.387882E+02 -1.619413E+02 2.487122E-04 1.798342E-03
2.014225E+03 -7.434342E+02 -1.639767E+02 2.438824E-04 1.846118E-03
2.014227E+03 -7.480785E+02 -1.660248E+02 2.391840E-04 1.893779E-03
2.014230E+03 -7.527214E+02 -1.680857E+02 2.345993E-04 1.941326E-03
2.014233E+03 -7.573631E+02 -1.701592E+02 2.301127E-04 1.988754E-03
2.014236E+03 -7.620037E+02 -1.722455E+02 2.257106E-04 2.036060E-03
2.014238E+03 -7.666433E+02 -1.743444E+02 2.213808E-04 2.083245E-03
2.014241E+03 -7.712821E+02 -1.764561E+02 2.171126E-04 2.130307E-03
2.014244E+03 -7.759199E+02 -1.785804E+02 2.128963E-04 2.177246E-03
2.014247E+03 -7.805571E+02 -1.807175E+02 2.087233E-04 2.224062E-03
2.014247E+03 -7.806554E+02 -1.807629E+02 2.111514E-04 2.225057E-03
2.014249E+03 -7.815229E+02 -1.829025E+02 1.510119E-04 2.269965E-03
2.014252E+03 -7.815148E+02 -1.850422E+02 1.013765E-04 2.313549E-03
2.014255E+03 -7.813292E+02 -1.871814E+02 5.923045E-05 2.356061E-03
2.014258E+03 -7.810222E+02 -1.893197E+02 2.291943E-05 2.397640E-03
2.014260E+03 -7.806634E+02 -1.914570E+02 0.000000E+00 2.438402E-03
2.014263E+03 -7.802752E+02 -1.935933E+02 0.000000E+00 2.478470E-03
2.014266E+03 -7.798672E+02 -1.957285E+02 0.000000E+00 2.517897E-03
2.014268E+03 -7.794465E+02 -1.978625E+02 0.000000E+00 2.556729E-03
2.014271E+03 -7.790393E+02 -1.999954E+02 0.000000E+00 2.595016E-03
2.014274E+03 -7.786119E+02 -2.021271E+02 0.000000E+00 2.632806E-03
2.014277E+03 -7.781700E+02 -2.042576E+02 0.000000E+00 2.670143E-03
2.014279E+03 -7.777183E+02 -2.063869E+02 0.000000E+00 2.707067E-03
2.014282E+03 -7.772594E+02 -2.085149E+02 0.000000E+00 2.743615E-03
2.014285E+03 -7.767946E+02 -2.106417E+02 0.000000E+00 2.779823E-03
2.014288E+03 -7.763250E+02 -2.127671E+02 0.000000E+00 2.815727E-03
2.014290E+03 -7.758512E+02 -2.148913E+02 0.000000E+00 2.851363E-03
2.014293E+03 -7.753738E+02 -2.170141E+02 0.000000E+00 2.886764E-03
2.014296E+03 -7.748930E+02 -2.191357E+02 0.000000E+00 2.921966E-03
2.014299E+03 -7.744094E+02 -2.212559E+02 0.000000E+00 2.957004E-03
2.014301E+03 -7.739230E+02 -2.233748E+02 0.000000E+00 2.991913E-03
2.014304E+03 -7.734342E+02 -2.254923E+02 0.000000E+00 3.026729E-03
2.014307E+03 -7.729432E+02 -2.276085E+02 0.000000E+00 3.061487E-03
2.014310E+03 -7.724501E+02 -2.297234E+02 0.000000E+00 3.096224E-03
2.014312E+03 -7.719552E+02 -2.318369E+02 0.000000E+00 3.130978E-03
2.014315E+03 -7.714585E+02 -2.339490E+02 0.000000E+00 3.165788E-03
2.014318E+03 -7.709602E+02 -2.360598E+02 0.000000E+00 3.200693E-03
2.014320E+03 -7.704653E+02 -2.381692E+02 0.000000E+00 3.235733E-03
2.014323E+03 -7.699723E+02 -2.402773E+02 0.000000E+00 3.270951E-03
2.014326E+03 -7.694763E+02 -2.423840E+02 0.000000E+00 3.306396E-03
2.014329E+03 -7.689774E+02 -2.444894E+02 0.000000E+00 3.342120E-03
2.014329E+03 -7.689595E+02 -2.445326E+02 0.000000E+00 3.342857E-03
2.014332E+03 -7.674614E+02 -2.466338E+02 0.000000E+00 3.377895E-03
2.014334E+03 -7.648278E+02 -2.487278E+02 0.000000E+00 3.413035E-03
2.014337E+03 -7.619618E+02 -2.508139E+02 0.000000E+00 3.448611E-03
2.014340E+03 -7.590051E+02 -2.528920E+02 0.000000E+00 3.484889E-03
2.014342E+03 -7.560080E+02 -2.549618E+02 0.000000E+00 3.522182E-03
2.014345E+03 -7.530291E+02 -2.570235E+02 0.000000E+00 3.561012E-03
2.014348E+03 -7.499227E+02 -2.590767E+02 0.000000E+00 3.603384E-03
2.014351E+03 -7.466262E+02 -2.611208E+02 0.000000E+00 3.646059E-03
2.014353E+03 -7.435631E+02 -2.631566E+02 0.000000E+00 3.688444E-03
2.014356E+03 -7.405090E+02 -2.651840E+02 0.000000E+00 3.730552E-03
2.014359E+03 -7.374497E+02 -2.672030E+02 0.000000E+00 3.772410E-03
2.014362E+03 -7.343835E+02 -2.692136E+02 0.000000E+00 3.814044E-03
2.014364E+03 -7.313107E+02 -2.712159E+02 0.000000E+00 3.855483E-03
2.014367E+03 -7.282318E+02 -2.732097E+02 0.000000E+00 3.896756E-03
2.014370E+03 -7.251474E+02 -2.751950E+02 0.000000E+00 3.937891E-03
2.014373E+03 -7.220579E+02 -2.771719E+02 0.000000E+00 3.978916E-03
2.014375E+03 -7.189638E+02 -2.791403E+02 0.000000E+00 4.019862E-03
2.014378E+03 -7.158654E+02 -2.811002E+02 0.000000E+00 4.060757E-03
2.014381E+03 -7.127630E+02 -2.830517E+02 0.000000E+00 4.101632E-03
2.014384E+03 -7.096567E+02 -2.849946E+02 0.000000E+00 4.142520E-03
2.014386E+03 -7.065468E+02 -2.869290E+02 0.000000E+00 4.183454E-03
2.014389E+03 -7.034334E+02 -2.888549E+02 0.000000E+00 4.224468E-03
2.014392E+03 -7.003166E+02 -2.907723E+02 0.000000E+00 4.265600E-03
2.014394E+03 -6.971964E+02 -2.926811E+02 0.000000E+00 4.306889E-03
2.014397E+03 -6.940729E+02 -2.945814E+02 0.000000E+00 4.348376E-03
2.014400E+03 -6.909462E+02 -2.964731E+02 0.000000E+00 4.390107E-03
2.014403E+03 -6.878163E+02 -2.983562E+02 0.000000E+00 4.432132E-03
2.014405E+03 -6.846830E+02 -3.002308E+02 0.000000E+00 4.474507E-03
2.014408E+03 -6.815465E+02 -3.020968E+02 0.000000E+00 4.517294E-03
2.014411E+03 -6.784066E+02 -3.039541E+02 0.000000E+00 4.560564E-03
2.014414E+03 -6.752676E+02 -3.058029E+02 0.000000E+00 4.604392E-03
2.014414E+03 -6.751896E+02 -3.058422E+02 0.000000E+00 4.605328E-03
2.014416E+03 -6.774297E+02 -3.076969E+02 0.000000E+00 4.652370E-03
2.014419E+03 -6.806178E+02 -3.095603E+02 0.000000E+00 4.701368E-03
2.014422E+03 -6.840507E+02 -3.114331E+02 0.000000E+00 4.752028E-03
2.014425E+03 -6.875847E+02 -3.133156E+02 0.000000E+00 4.804294E-03
2.014427E+03 -6.911718E+02 -3.152080E+02 0.000000E+00 4.858212E-03
2.014430E+03 -6.947934E+02 -3.171102E+02 0.000000E+00 4.913902E-03
2.014433E+03 -6.984461E+02 -3.190224E+02 0.000000E+00 4.971572E-03
2.014436E+03 -7.021445E+02 -3.209448E+02 0.000000E+00 5.031606E-03
2.014438E+03 -7.057583E+02 -3.228771E+02 0.000000E+00 5.094725E-03
2.014441E+03 -7.093332E+02 -3.248191E+02 0.000000E+00 5.161264E-03
2.014444E+03 -7.129557E+02 -3.267711E+02 0.000000E+00 5.228650E-03
2.014447E+03 -7.166283E+02 -3.287331E+02 0.000000E+00 5.296802E-03
2.014449E+03 -7.203123E+02 -3.307052E+02 0.000000E+00 5.365712E-03
2.014452E+03 -7.240023E+02 -3.326874E+02 0.000000E+00 5.435380E-03
2.014455E+03 -7.276964E+02 -3.346797E+02 0.000000E+00 5.505812E-03
2.014458E+03 -7.313936E+02 -3.366822E+02 0.000000E+00 5.577015E-03
2.014460E+03 -7.350931E+02 -3.386948E+02 0.000000E+00 5.649000E-03
2.014463E+03 -7.387946E+02 -3.407175E+02 0.000000E+00 5.721777E-03
2.014466E+03 -7.424977E+02 -3.427503E+02 0.000000E+00 5.795359E-03
2.014468E+03 -7.462021E+02 -3.447933E+02 0.000000E+00 5.869759E-03
2.014471E+03 -7.499076E+02 -3.468464E+02 0.000000E+00 5.944992E-03
2.014474E+03 -7.536141E+02 -3.489097E+02 0.000000E+00 6.021073E-03
2.014477E+03 -7.573213E+02 -3.509832E+02 0.000000E+00 6.098020E-03
2.014479E+03 -7.610291E+02 -3.530667E+02 0.000000E+00 6.175849E-03
2.014482E+03 -7.647376E+02 -3.551605E+02 0.000000E+00 6.254580E-03
2.014485E+03 -7.684465E+02 -3.572644E+02 0.000000E+00 6.334232E-03
2.014488E+03 -7.721558E+02 -3.593784E+02 0.000000E+00 6.414826E-03
2.014490E+03 -7.758654E+02 -3.615026E+02 0.000000E+00 6.496384E-03
2.014493E+03 -7.795754E+02 -3.636370E+02 0.000000E+00 6.578929E-03
2.014496E+03 -7.832857E+02 -3.657815E+02 0.000000E+00 6.662487E-03
2.014496E+03 -7.833606E+02 -3.658256E+02 0.000000E+00 6.664213E-03
2.014499E+03 -7.833791E+02 -3.679703E+02 0.000000E+00 6.751331E-03
2.014501E+03 -7.841376E+02 -3.701172E+02 0.000000E+00 6.840264E-03
2.014504E+03 -7.851004E+02 -3.722667E+02 0.000000E+00 6.930513E-03
2.014507E+03 -7.861638E+02 -3.744191E+02 0.000000E+00 7.021832E-03
2.014510E+03 -7.872687E+02 -3.765745E+02 0.000000E+00 7.114129E-03
2.014512E+03 -7.883923E+02 -3.787330E+02 0.000000E+00 7.207372E-03
2.014515E+03 -7.895288E+02 -3.808946E+02 0.000000E+00 7.301540E-03
2.014518E+03 -7.906758E+02 -3.830594E+02 0.000000E+00 7.396623E-03
2.014521E+03 -7.918312E+02 -3.852273E+02 0.000000E+00 7.492611E-03
2.014523E+03 -7.929935E+02 -3.873984E+02 0.000000E+00 7.589501E-03
2.014526E+03 -7.941614E+02 -3.895727E+02 0.000000E+00 7.687292E-03
2.014529E+03 -7.953341E+02 -3.917502E+02 0.000000E+00 7.785987E-03
2.014531E+03 -7.965106E+02 -3.939309E+02 0.000000E+00 7.885590E-03
2.014534E+03 -7.976904E+02 -3.961149E+02 0.000000E+00 7.986108E-03
2.014537E+03 -7.988730E+02 -3.983021E+02 0.000000E+00 8.087548E-03
2.014540E+03 -8.000579E+02 -4.004925E+02 0.000000E+00 8.189920E-03
2.014542E+03 -8.012448E+02 -4.026862E+02 0.000000E+00 8.293236E-03
2.014545E+03 -8.024334E+02 -4.048831E+02 0.000000E+00 8.397508E-03
2.014548E+03 -8.036236E+02 -4.070833E+02 0.000000E+00 8.502750E-03
2.014551E+03 -8.048151E+02 -4.092868E+02 0.000000E+00 8.608976E-03
2.014553E+03 -8.060079E+02 -4.114935E+02 0.000000E+00 8.716203E-03
2.014556E+03 -8.072018E+02 -4.137035E+02 0.000000E+00 8.824449E-03
2.014559E+03 -8.083967E+02 -4.159168E+02 0.000000E+00 8.933730E-03
2.014562E+03 -8.095926E+02 -4.181333E+02 0.000000E+00 9.044069E-03
2.014564E+03 -8.107895E+02 -4.203532E+02 0.000000E+00 9.155485E-03
2.014567E+03 -8.119872E+02 -4.225763E+02 0.000000E+00 9.268002E-03
2.014570E+03 -8.131858E+02 -4.248026E+02 0.000000E+00 9.381644E-03
2.014573E+03 -8.143853E+02 -4.270323E+02 0.000000E+00 9.496439E-03
2.014575E+03 -8.155856E+02 -4.292653E+02 0.000000E+00 9.612414E-03
2.014578E+03 -8.167869E+02 -4.315015E+02 0.000000E+00 9.729601E-03
2.014581E+03 -8.179891E+02 -4.337410E+02 0.000000E+00 9.848033E-03
2.014581E+03 -8.180133E+02 -4.337886E+02 0.000000E+00 9.850558E-03
2.014584E+03 -8.190103E+02 -4.360309E+02 0.000000E+00 9.980317E-03
2.014586E+03 -8.214034E+02 -4.382798E+02 0.000000E+00 1.011743E-02
2.014589E+03 -8.241750E+02 -4.405363E+02 0.000000E+00 1.026098E-02
2.014592E+03 -8.271326E+02 -4.428008E+02 0.000000E+00 1.041061E-02
2.014595E+03 -8.302020E+02 -4.450738E+02 0.000000E+00 1.056620E-02
2.014597E+03 -8.333464E+02 -4.473554E+02 0.000000E+00 1.072768E-02
2.014600E+03 -8.365448E+02 -4.496457E+02 0.000000E+00 1.089502E-02
2.014603E+03 -8.397834E+02 -4.519449E+02 0.000000E+00 1.106820E-02
2.014605E+03 -8.430528E+02 -4.542531E+02 0.000000E+00 1.124720E-02
2.014608E+03 -8.463464E+02 -4.565702E+02 0.000000E+00 1.143202E-02
2.014611E+03 -8.496590E+02 -4.588965E+02 0.000000E+00 1.162264E-02
2.014614E+03 -8.529869E+02 -4.612318E+02 0.000000E+00 1.181905E-02
2.014616E+03 -8.563271E+02 -4.635763E+02 0.000000E+00 1.202122E-02
2.014619E+03 -8.596775E+02 -4.659300E+02 0.000000E+00 1.222915E-02
2.014622E+03 -8.630363E+02 -4.682929E+02 0.000000E+00 1.244281E-02
2.014625E+03 -8.664021E+02 -4.706649E+02 0.000000E+00 1.266219E-02
2.014627E+03 -8.697739E+02 -4.730463E+02 0.000000E+00 1.288724E-02
2.014630E+03 -8.731507E+02 -4.754368E+02 0.000000E+00 1.311795E-02
2.014633E+03 -8.765319E+02 -4.778366E+02 0.000000E+00 1.335429E-02
2.014636E+03 -8.799169E+02 -4.802457E+02 0.000000E+00 1.359622E-02
2.014638E+03 -8.833053E+02 -4.826641E+02 0.000000E+00 1.384371E-02
2.014641E+03 -8.866967E+02 -4.850917E+02 0.000000E+00 1.409672E-02
2.014644E+03 -8.900908E+02 -4.875286E+02 0.000000E+00 1.435523E-02
2.014647E+03 -8.934872E+02 -4.899749E+02 0.000000E+00 1.461918E-02
2.014649E+03 -8.968859E+02 -4.924304E+02 0.000000E+00 1.488854E-02
2.014652E+03 -9.002865E+02 -4.948953E+02 0.000000E+00 1.516328E-02
2.014655E+03 -9.036890E+02 -4.973694E+02 0.000000E+00 1.544334E-02
2.014657E+03 -9.070932E+02 -4.998529E+02 0.000000E+00 1.572868E-02
2.014660E+03 -9.104989E+02 -5.023457E+02 0.000000E+00 1.601926E-02
2.014663E+03 -9.139061E+02 -5.048479E+02 0.000000E+00 1.631504E-02
2.014666E+03 -9.173147E+02 -5.073593E+02 0.000000E+00 1.661597E-02
2.014666E+03 -9.173867E+02 -5.074127E+02 0.000000E+00 1.662236E-02
2.014668E+03 -9.197586E+02 -5.099308E+02 3.753602E-04 1.693683E-02
2.014671E+03 -9.229366E+02 -5.124577E+02 6.318939E-04 1.726206E-02
2.014674E+03 -9.263536E+02 -5.149939E+02 8.092190E-04 1.759727E-02
2.014677E+03 -9.298851E+02 -5.175398E+02 9.441582E-04 1.794210E-02
2.014679E+03 -9.334846E+02 -5.200955E+02 1.052671E-03 1.829638E-02
2.014682E+03 -9.371297E+02 -5.226613E+02 1.142918E-03 1.865998E-02
2.014685E+03 -9.408076E+02 -5.252370E+02 1.219664E-03 1.903280E-02
2.014688E+03 -9.445105E+02 -5.278230E+02 1.285978E-03 1.941473E-02
2.014690E+03 -9.482329E+02 -5.304191E+02 1.343979E-03 1.980570E-02
2.014693E+03 -9.519710E+02 -5.330255E+02 1.395205E-03 2.020559E-02
2.014696E+03 -9.557219E+02 -5.356421E+02 1.440811E-03 2.061431E-02
2.014699E+03 -9.594834E+02 -5.382690E+02 1.481685E-03 2.103175E-02
2.014701E+03 -9.632538E+02 -5.409062E+02 1.518526E-03 2.145782E-02
2.014704E+03 -9.670318E+02 -5.435538E+02 1.551888E-03 2.189240E-02
2.014707E+03 -9.707411E+02 -5.462116E+02 1.591746E-03 2.233013E-02
2.014710E+03 -9.742412E+02 -5.488789E+02 1.638541E-03 2.277133E-02
2.014712E+03 -9.777337E+02 -5.515558E+02 1.682163E-03 2.321782E-02
2.014715E+03 -9.813284E+02 -5.542425E+02 1.722196E-03 2.367039E-02
2.014718E+03 -9.849622E+02 -5.569392E+02 1.758953E-03 2.412948E-02
2.014721E+03 -9.886217E+02 -5.596459E+02 1.792823E-03 2.459532E-02
2.014723E+03 -9.923001E+02 -5.623627E+02 1.824144E-03 2.506810E-02
2.014726E+03 -9.959935E+02 -5.650896E+02 1.853192E-03 2.554792E-02
2.014729E+03 -9.996991E+02 -5.678266E+02 1.880249E-03 2.603485E-02
2.014731E+03 -1.003415E+03 -5.705738E+02 2.014600E-03 2.652924E-02
2.014734E+03 -1.007140E+03 -5.733312E+02 2.142457E-03 2.703107E-02
2.014737E+03 -1.010874E+03 -5.760988E+02 2.264290E-03 2.754034E-02
2.014740E+03 -1.014614E+03 -5.788767E+02 2.380501E-03 2.805702E-02
2.014742E+03 -1.018361E+03 -5.816648E+02 2.491443E-03 2.858105E-02
2.014745E+03 -1.022114E+03 -5.844632E+02 2.597428E-03 2.911239E-02
2.014748E+03 -1.025872E+03 -5.872719E+02 2.698734E-03 2.965098E-02
2.014748E+03 -1.025946E+03 -5.873296E+02 2.711956E-03 2.966205E-02
2.014751E+03 -1.028246E+03 -5.901448E+02 2.425800E-03 3.020200E-02
2.014753E+03 -1.030092E+03 -5.929650E+02 2.305030E-03 3.074459E-02
2.014756E+03 -1.031820E+03 -5.957900E+02 2.250518E-03 3.129016E-02
2.014759E+03 -1.033496E+03 -5.986195E+02 2.229771E-03 3.183878E-02
2.014762E+03 -1.035143E+03 -6.014536E+02 2.228592E-03 3.239045E-02
2.014764E+03 -1.036771E+03 -6.042921E+02 2.239789E-03 3.294512E-02
2.014767E+03 -1.038388E+03 -6.071351E+02 2.259283E-03 3.350273E-02
2.014770E+03 -1.039996E+03 -6.099824E+02 2.284553E-03 3.406325E-02
2.014773E+03 -1.041597E+03 -6.128342E+02 2.313934E-03 3.462659E-02
2.014775E+03 -1.043194E+03 -6.156903E+02 2.346267E-03 3.519271E-02
2.014778E+03 -1.044787E+03 -6.185507E+02 2.380713E-03 3.576154E-02
2.014781E+03 -1.046378E+03 -6.214156E+02 2.416646E-03 3.633305E-02
2.014784E+03 -1.047966E+03 -6.242847E+02 2.453589E-03 3.690716E-02
2.014786E+03 -1.049553E+03 -6.271583E+02 2.491169E-03 3.748382E-02
2.014789E+03 -1.051139E+03 -6.300361E+02 2.529095E-03 3.806298E-02
2.014792E+03 -1.052724E+03 -6.329183E+02 2.567134E-03 3.864460E-02
2.014794E+03 -1.054308E+03 -6.358049E+02 2.605101E-03 3.922862E-02
2.014797E+03 -1.055892E+03 -6.386957E+02 2.642849E-03 3.981500E-02
2.014800E+03 -1.057475E+03 -6.415909E+02 2.680260E-03 4.040368E-02
2.014803E+03 -1.059058E+03 -6.444905E+02 2.717238E-03 4.099463E-02
2.014805E+03 -1.060641E+03 -6.473944E+02 2.753708E-03 4.158779E-02
2.014808E+03 -1.062225E+03 -6.503026E+02 2.789610E-03 4.218312E-02
2.014811E+03 -1.063808E+03 -6.532151E+02 2.824898E-03 4.278058E-02
2.014814E+03 -1.065392E+03 -6.561320E+02 2.859535E-03 4.338012E-02
2.014816E+03 -1.066976E+03 -6.590532E+02 2.893494E-03 4.398169E-02
2.014819E+03 -1.068528E+03 -6.619787E+02 2.929575E-03 4.458288E-02
2.014822E+03 -1.069908E+03 -6.649080E+02 2.973388E-03 4.518016E-02
2.014825E+03 -1.071333E+03 -6.678411E+02 3.017501E-03 4.577674E-02
2.014827E+03 -1.072688E+03 -6.707780E+02 3.058940E-03 4.637314E-02
2.014830E+03 -1.074120E+03 -6.737187E+02 3.098652E-03 4.696986E-02
2.014833E+03 -1.075579E+03 -6.766635E+02 3.136982E-03 4.756723E-02
2.014833E+03 -1.075597E+03 -6.767260E+02 3.150585E-03 4.757989E-02
2.014836E+03 -1.078500E+03 -6.796788E+02 2.583039E-03 4.816877E-02
2.014838E+03 -1.080348E+03 -6.826366E+02 2.230777E-03 4.875165E-02
2.014841E+03 -1.081948E+03 -6.855989E+02 1.986265E-03 4.932919E-02
2.014844E+03 -1.083435E+03 -6.885651E+02 1.804136E-03 4.990162E-02
2.014847E+03 -1.084858E+03 -6.915353E+02 1.661559E-03 5.046906E-02
2.014849E+03 -1.086240E+03 -6.945093E+02 1.546009E-03 5.103159E-02
2.014852E+03 -1.087594E+03 -6.974870E+02 1.450040E-03 5.158928E-02
2.014855E+03 -1.088926E+03 -7.004683E+02 1.368909E-03 5.214216E-02
2.014858E+03 -1.090242E+03 -7.034532E+02 1.299421E-03 5.269032E-02
2.014860E+03 -1.091545E+03 -7.064417E+02 1.239320E-03 5.323379E-02
2.014863E+03 -1.092838E+03 -7.094337E+02 1.186952E-03 5.377267E-02
2.014866E+03 -1.094122E+03 -7.124292E+02 1.141057E-03 5.430702E-02
2.014868E+03 -1.095399E+03 -7.154283E+02 1.100657E-03 5.483693E-02
2.014871E+03 -1.096669E+03 -7.184308E+02 1.064968E-03 5.536247E-02
2.014874E+03 -1.097934E+03 -7.214368E+02 1.033354E-03 5.588374E-02
2.014877E+03 -1.099195E+03 -7.244462E+02 1.005289E-03 5.640081E-02
2.014879E+03 -1.100451E+03 -7.274591E+02 9.803320E-04 5.691381E-02
2.014882E+03 -1.101704E+03 -7.304754E+02 9.581123E-04 5.742279E-02
2.014885E+03 -1.102953E+03 -7.334951E+02 9.383125E-04 5.792787E-02
2.014888E+03 -1.104200E+03 -7.365182E+02 9.206601E-04 5.842913E-02
2.014890E+03 -1.105444E+03 -7.395448E+02 9.049200E-04 5.892669E-02
2.014893E+03 -1.106687E+03 -7.425747E+02 8.908877E-04 5.942062E-02
2.014896E+03 -1.107927E+03 -7.456081E+02 8.783853E-04 5.991102E-02
2.014899E+03 -1.109165E+03 -7.486448E+02 8.672566E-04 6.039801E-02
2.014901E+03 -1.110402E+03 -7.516849E+02 8.573647E-04 6.088164E-02
2.014904E+03 -1.111638E+03 -7.547284E+02 8.485888E-04 6.136205E-02
2.014907E+03 -1.112872E+03 -7.577753E+02 8.408223E-04 6.183930E-02
2.014910E+03 -1.114105E+03 -7.608255E+02 8.339704E-04 6.231349E-02
2.014912E+03 -1.115337E+03 -7.638792E+02 8.279493E-04 6.278472E-02
2.014915E+03 -1.116569E+03 -7.669362E+02 8.226841E-04 6.325306E-02
2.014915E+03 -1.116594E+03 -7.669990E+02 8.269697E-04 6.326267E-02
2.014918E+03 -1.114666E+03 -7.700508E+02 7.525027E-04 6.372335E-02
2.014921E+03 -1.112297E+03 -7.730961E+02 7.033182E-04 6.417727E-02
2.014923E+03 -1.109828E+03 -7.761346E+02 6.646382E-04 6.462472E-02
2.014926E+03 -1.107315E+03 -7.791663E+02 6.333762E-04 6.506588E-02
2.014929E+03 -1.104775E+03 -7.821910E+02 6.074165E-04 6.550091E-02
2.014931E+03 -1.102220E+03 -7.852087E+02 5.853676E-04 6.592996E-02
2.014934E+03 -1.099652E+03 -7.882194E+02 5.663054E-04 6.635318E-02
2.014937E+03 -1.097076E+03 -7.912230E+02 5.495979E-04 6.677074E-02
2.014940E+03 -1.094493E+03 -7.942196E+02 5.347981E-04 6.718277E-02
2.014942E+03 -1.091904E+03 -7.972090E+02 5.215791E-04 6.758943E-02
2.014945E+03 -1.089311E+03 -8.001914E+02 5.096942E-04 6.799088E-02
2.014948E+03 -1.086713E+03 -8.031667E+02 4.989519E-04 6.838726E-02
2.014951E+03 -1.084113E+03 -8.061348E+02 4.892001E-04 6.877872E-02
2.014953E+03 -1.081509E+03 -8.090958E+02 4.803150E-04 6.916541E-02
2.014956E+03 -1.078903E+03 -8.120497E+02 4.721945E-04 6.954747E-02
2.014959E+03 -1.076295E+03 -8.149964E+02 4.647525E-04 6.992505E-02
2.014962E+03 -1.073685E+03 -8.179360E+02 4.579163E-04 7.029829E-02
2.014964E+03 -1.071073E+03 -8.208685E+02 4.516233E-04 7.066731E-02
2.014967E+03 -1.068459E+03 -8.237937E+02 4.458190E-04 7.103226E-02
2.014970E+03 -1.065844E+03 -8.267119E+02 4.404564E-04 7.139327E-02
2.014973E+03 -1.063228E+03 -8.296228E+02 4.354940E-04 7.175046E-02
2.014975E+03 -1.060610E+03 -8.325266E+02 4.308951E-04 7.210395E-02
2.014978E+03 -1.057992E+03 -8.354232E+02 4.266276E-04 7.245388E-02
2.014981E+03 -1.055372E+03 -8.383127E+02 4.226625E-04 7.280035E-02
2.014984E+03 -1.052752E+03 -8.411950E+02 4.189744E-04 7.314348E-02
2.014986E+03 -1.050131E+03 -8.440701E+02 4.155403E-04 7.348338E-02
2.014989E+03 -1.047509E+03 -8.469380E+02 4.123398E-04 7.382017E-02
2.014992E+03 -1.044886E+03 -8.497987E+02 4.093545E-04 7.415393E-02
2.014994E+03 -1.042263E+03 -8.526523E+02 4.065677E-04 7.448478E-02
2.014997E+03 -1.039639E+03 -8.554987E+02 4.039645E-04 7.481283E-02
2.015000E+03 -1.037014E+03 -8.583379E+02 4.015314E-04 7.513815E-02
2.015000E+03 -1.036959E+03 -8.583981E+02 4.035509E-04 7.514504E-02
2.015003E+03 -1.036164E+03 -8.612350E+02 3.289124E-04 7.546459E-02
2.015005E+03 -1.034890E+03 -8.640684E+02 2.718599E-04 7.577922E-02
2.015008E+03 -1.033509E+03 -8.668980E+02 2.262464E-04 7.608915E-02
2.015011E+03 -1.032078E+03 -8.697237E+02 1.886410E-04 7.639455E-02
2.015014E+03 -1.030620E+03 -8.725453E+02 1.567054E-04 7.669555E-02
2.015016E+03 -1.029145E+03 -8.753630E+02 1.289119E-04 7.699229E-02
2.015019E+03 -1.027658E+03 -8.781766E+02 1.042529E-04 7.728488E-02
2.015022E+03 -1.026162E+03 -8.809860E+02 8.204402E-05 7.757350E-02
2.015025E+03 -1.024660E+03 -8.837914E+02 6.180522E-05 7.785829E-02