TITLE = ""
VARIABLES ="simulation time, " "Aqueous Volumetric Flux Rate (1)" "Aqueous Volumetric Flux Integral (1)" "Conservation Component Species Flux (total_cr6) Rate (2)" "Conservation Component Species Flux (total_cr6) Integral (2)"
ZONE T="Reference Node Variables" F=POINT
2.014000E+03 2.591538E+03 7.095243E-06 0.000000E+00 0.000000E+00 
2.014000E+03 2.851597E+03 1.685430E-05 5.130873E-11 1.755945E-19 
2.014000E+03 3.155995E+03 3.035531E-05 1.154482E-10 6.694696E-19 
2.014000E+03 3.509200E+03 4.912028E-05 1.956328E-10 1.715590E-18 
2.014000E+03 3.911949E+03 7.526855E-05 2.958871E-10 3.693360E-18 
2.014000E+03 4.361506E+03 1.117101E-04 4.212541E-10 7.213047E-18 
2.014000E+03 4.850453E+03 1.623685E-04 5.780597E-10 1.325034E-17 
2.014000E+03 5.365777E+03 2.324192E-04 7.742477E-10 2.335822E-17 
2.014000E+03 5.888711E+03 3.285163E-04 1.019810E-09 4.000035E-17 
2.014000E+03 6.395853E+03 4.589826E-04 1.327332E-09 6.707603E-17 
2.014000E+03 6.861923E+03 6.339495E-04 1.712699E-09 1.107468E-16 
2.014000E+03 7.264006E+03 8.654735E-04 2.195999E-09 1.807394E-16 
2.014000E+03 7.586317E+03 1.167720E-03 2.802690E-09 2.924013E-16 
2.014000E+03 7.823843E+03 1.557357E-03 3.565117E-09 4.699485E-16 
2.014000E+03 7.983144E+03 2.054320E-03 4.524507E-09 7.516059E-16 
2.014000E+03 8.079668E+03 2.683034E-03 5.733615E-09 1.197764E-15 
2.014000E+03 8.132616E+03 3.474077E-03 7.260277E-09 1.903956E-15 
2.014000E+03 8.159735E+03 4.466179E-03 9.192218E-09 3.021592E-15 
2.014000E+03 8.174137E+03 5.708494E-03 1.164362E-08 4.791204E-15 
2.014000E+03 8.183788E+03 7.263222E-03 1.476417E-08 7.596050E-15 
2.014000E+03 8.192760E+03 9.208763E-03 1.875152E-08 1.204899E-14 
2.014000E+03 8.202911E+03 1.164370E-02 2.386869E-08 1.913413E-14 
2.014000E+03 8.215124E+03 1.469191E-02 3.046835E-08 3.043935E-14 
2.014000E+03 8.229967E+03 1.850905E-02 3.902660E-08 4.854028E-14 
2.014000E+03 8.247942E+03 2.329089E-02 5.018995E-08 7.763852E-14 
2.014000E+03 8.269552E+03 2.928386E-02 6.483994E-08 1.246282E-13 
2.014000E+03 8.295289E+03 3.679839E-02 8.418042E-08 2.008855E-13 
2.014000E+03 8.325588E+03 4.622586E-02 1.098528E-07 3.252771E-13 
2.014000E+03 8.360750E+03 5.805996E-02 1.440821E-07 5.292161E-13 
2.014000E+03 8.400737E+03 7.292334E-02 1.898366E-07 8.650930E-13 
2.014000E+03 8.445206E+03 9.160091E-02 2.510320E-07 1.420280E-12 
2.014000E+03 8.493345E+03 1.150810E-01 3.327121E-07 2.340070E-12 
2.014000E+03 8.543789E+03 1.446053E-01 4.411891E-07 3.864667E-12 
2.014000E+03 8.594624E+03 1.817304E-01 5.841044E-07 6.387745E-12 
2.014000E+03 8.643529E+03 2.284008E-01 7.704002E-07 1.054749E-11 
2.014000E+03 8.688072E+03 2.870394E-01 1.010272E-06 1.736614E-11 
2.014000E+03 8.726146E+03 3.606588E-01 1.315294E-06 2.846282E-11 
2.014000E+03 8.756422E+03 4.530025E-01 1.698998E-06 4.638015E-11 
2.014000E+03 8.778656E+03 5.687251E-01 2.178174E-06 7.509343E-11 
2.014000E+03 8.793696E+03 7.136262E-01 2.774898E-06 1.208178E-10 
2.014000E+03 8.803156E+03 8.949475E-01 3.518985E-06 1.932993E-10 
2.014000E+03 8.808891E+03 1.121747E+00 4.450398E-06 3.078821E-10 
2.014000E+03 8.812517E+03 1.405362E+00 5.621344E-06 4.887954E-10 
2.014000E+03 8.815149E+03 1.759988E+00 7.098217E-06 7.743503E-10 
2.014000E+03 8.817392E+03 2.203383E+00 8.963856E-06 1.225110E-09 
2.014000E+03 8.819485E+03 2.757758E+00 1.132054E-05 1.936696E-09 
2.014000E+03 8.821458E+03 3.450881E+00 1.429395E-05 3.059807E-09 
2.014000E+03 8.823254E+03 4.317462E+00 1.803835E-05 4.831454E-09 
2.014001E+03 8.824805E+03 5.400879E+00 2.274374E-05 7.623691E-09 
2.014001E+03 8.826059E+03 6.755342E+00 2.864581E-05 1.201973E-08 
2.014001E+03 8.827010E+03 8.448604E+00 3.603986E-05 1.893316E-08 
2.014001E+03 8.827565E+03 1.056531E+01 4.545049E-05 2.983147E-08 
2.014001E+03 8.827732E+03 1.321125E+01 5.782852E-05 4.716442E-08 
2.014002E+03 8.827930E+03 1.651875E+01 7.445219E-05 7.505888E-08 
2.014002E+03 8.828143E+03 2.065322E+01 9.722998E-05 1.205944E-07 
2.014003E+03 8.828361E+03 2.582143E+01 1.289799E-04 1.961006E-07 
2.014004E+03 8.828574E+03 3.228186E+01 1.737815E-04 3.232675E-07 
2.014005E+03 8.828775E+03 4.035757E+01 2.373807E-04 5.404006E-07 
2.014006E+03 8.828958E+03 5.045242E+01 3.276036E-04 9.149759E-07 
2.014007E+03 8.829120E+03 6.307122E+01 4.547172E-04 1.564869E-06 
2.014009E+03 8.829259E+03 7.884497E+01 6.316613E-04 2.693351E-06 
2.014011E+03 8.829377E+03 9.856241E+01 8.741005E-04 4.645361E-06 
2.014014E+03 8.829473E+03 1.227362E+02 1.197218E-03 7.923166E-06 
2.014017E+03 8.829541E+03 1.469102E+02 1.577968E-03 1.224341E-05 
2.014019E+03 8.829590E+03 1.710843E+02 1.981642E-03 1.766885E-05 
2.014022E+03 8.829627E+03 1.952585E+02 2.401268E-03 2.424316E-05 
2.014025E+03 8.829656E+03 2.194327E+02 2.831753E-03 3.199608E-05 
2.014028E+03 8.829680E+03 2.436071E+02 3.269411E-03 4.094724E-05 
2.014030E+03 8.829698E+03 2.677815E+02 3.711598E-03 5.110904E-05 
2.014033E+03 8.829714E+03 2.919559E+02 4.156423E-03 6.248871E-05 
2.014036E+03 8.829727E+03 3.161304E+02 4.602541E-03 7.508978E-05 
2.014039E+03 8.829738E+03 3.403049E+02 5.048996E-03 8.891318E-05 
2.014041E+03 8.829748E+03 3.644794E+02 5.495115E-03 1.039580E-04 
2.014044E+03 8.829756E+03 3.886540E+02 5.940420E-03 1.202220E-04 
2.014047E+03 8.829763E+03 4.128286E+02 6.384577E-03 1.377020E-04 
2.014049E+03 8.829770E+03 4.370032E+02 6.827352E-03 1.563943E-04 
2.014052E+03 8.829775E+03 4.611778E+02 7.268584E-03 1.762946E-04 
2.014055E+03 8.829781E+03 4.853524E+02 7.708160E-03 1.973983E-04 
2.014058E+03 8.829785E+03 5.095270E+02 8.146004E-03 2.197009E-04 
2.014060E+03 8.829789E+03 5.337017E+02 8.582066E-03 2.431973E-04 
2.014063E+03 8.829793E+03 5.578763E+02 9.016315E-03 2.678826E-04 
2.014066E+03 8.829796E+03 5.820510E+02 9.448729E-03 2.937518E-04 
2.014069E+03 8.829799E+03 6.062257E+02 9.879298E-03 3.207999E-04 
2.014071E+03 8.829802E+03 6.304003E+02 1.030802E-02 3.490217E-04 
2.014074E+03 8.829805E+03 6.545750E+02 1.073489E-02 3.784122E-04 
2.014077E+03 8.829807E+03 6.787497E+02 1.115992E-02 4.089664E-04 
2.014080E+03 8.829810E+03 7.029244E+02 1.158310E-02 4.406792E-04 
2.014082E+03 8.829812E+03 7.270991E+02 1.200445E-02 4.735456E-04 
2.014085E+03 8.829813E+03 7.498940E+02 1.241160E-02 5.055871E-04 
2.014088E+03 8.879832E+03 7.742056E+02 1.833007E-02 5.557721E-04 
2.014090E+03 8.926646E+03 7.986455E+02 2.401930E-02 6.215334E-04 
2.014093E+03 8.972900E+03 8.232119E+02 2.894390E-02 7.007775E-04 
2.014096E+03 9.004965E+03 8.478662E+02 3.192913E-02 7.881947E-04 
2.014099E+03 8.958712E+03 8.723938E+02 2.720890E-02 8.626886E-04 
2.014101E+03 8.976489E+03 8.969701E+02 2.933947E-02 9.430156E-04 
2.014104E+03 8.919503E+03 9.213904E+02 2.960323E-02 1.024065E-03 
2.014107E+03 8.920571E+03 9.458135E+02 2.995161E-02 1.106068E-03 
2.014110E+03 8.937310E+03 9.702826E+02 3.024433E-02 1.188872E-03 
2.014112E+03 8.961048E+03 9.948166E+02 3.050589E-02 1.272393E-03 
2.014115E+03 8.988991E+03 1.019427E+03 3.075777E-02 1.356603E-03 
2.014118E+03 9.019797E+03 1.044122E+03 3.100935E-02 1.441502E-03 
2.014121E+03 9.052693E+03 1.068907E+03 3.126361E-02 1.527097E-03 
2.014123E+03 9.087187E+03 1.093786E+03 3.152069E-02 1.613396E-03 
2.014126E+03 9.122941E+03 1.118763E+03 3.177976E-02 1.700404E-03 
2.014129E+03 9.159710E+03 1.143841E+03 3.203986E-02 1.788125E-03 
2.014131E+03 9.197315E+03 1.169022E+03 3.230025E-02 1.876558E-03 
2.014134E+03 9.235616E+03 1.194308E+03 3.256045E-02 1.965704E-03 
2.014137E+03 9.274503E+03 1.219700E+03 3.282030E-02 2.055561E-03 
2.014140E+03 9.313890E+03 1.245200E+03 3.307984E-02 2.146128E-03 
2.014142E+03 9.353706E+03 1.270809E+03 3.333925E-02 2.237406E-03 
2.014145E+03 9.393892E+03 1.296528E+03 3.359882E-02 2.329395E-03 
2.014148E+03 9.434401E+03 1.322358E+03 3.385886E-02 2.422095E-03 
2.014151E+03 9.475192E+03 1.348300E+03 3.411972E-02 2.515510E-03 
2.014153E+03 9.516232E+03 1.374354E+03 3.438170E-02 2.609642E-03 
2.014156E+03 9.557490E+03 1.400521E+03 3.464508E-02 2.704495E-03 
2.014159E+03 9.598942E+03 1.426802E+03 3.491010E-02 2.800074E-03 
2.014162E+03 9.544734E+03 1.452934E+03 3.199926E-02 2.887683E-03 
2.014162E+03 9.544963E+03 1.453435E+03 3.199450E-02 2.889363E-03 
2.014164E+03 9.428305E+03 1.479248E+03 3.130365E-02 2.975068E-03 
2.014167E+03 9.226330E+03 1.504508E+03 2.814668E-02 3.052129E-03 
2.014170E+03 9.025485E+03 1.529219E+03 2.649356E-02 3.124664E-03 
2.014173E+03 8.825978E+03 1.553383E+03 2.578977E-02 3.195273E-03 
2.014175E+03 8.627394E+03 1.577004E+03 2.573727E-02 3.265738E-03 
2.014178E+03 8.429749E+03 1.600083E+03 2.616511E-02 3.337374E-03 
2.014181E+03 8.233619E+03 1.622625E+03 2.694780E-02 3.411153E-03 
2.014184E+03 8.039295E+03 1.644636E+03 2.801225E-02 3.487846E-03 
2.014186E+03 7.847362E+03 1.666121E+03 2.932705E-02 3.568140E-03 
2.014189E+03 7.658759E+03 1.687089E+03 3.090003E-02 3.652739E-03 
2.014192E+03 7.475665E+03 1.707556E+03 3.316043E-02 3.743528E-03 
2.014194E+03 7.303032E+03 1.727551E+03 3.632871E-02 3.842990E-03 
2.014197E+03 7.168580E+03 1.747178E+03 4.193902E-02 3.957813E-03 
2.014200E+03 7.050589E+03 1.766481E+03 4.843823E-02 4.090429E-03 
2.014203E+03 6.901530E+03 1.785376E+03 4.861621E-02 4.223533E-03 
2.014205E+03 6.687952E+03 1.803687E+03 3.652033E-02 4.323521E-03 
2.014208E+03 6.474257E+03 1.821413E+03 2.805095E-02 4.400320E-03 
2.014211E+03 6.260611E+03 1.838553E+03 2.214414E-02 4.460947E-03 
2.014214E+03 6.047011E+03 1.855109E+03 1.806619E-02 4.510410E-03 
2.014216E+03 5.833461E+03 1.871080E+03 1.532040E-02 4.552355E-03 
2.014219E+03 5.619970E+03 1.886467E+03 1.355867E-02 4.589476E-03 
2.014222E+03 5.406536E+03 1.901269E+03 1.254414E-02 4.623820E-03 
2.014225E+03 5.193176E+03 1.915487E+03 1.213178E-02 4.657035E-03 
2.014227E+03 4.979944E+03 1.929121E+03 1.225193E-02 4.690579E-03 
2.014230E+03 4.766913E+03 1.942173E+03 1.291198E-02 4.725930E-03 
2.014233E+03 4.554209E+03 1.954641E+03 1.424520E-02 4.764932E-03 
2.014236E+03 4.342212E+03 1.966530E+03 1.673751E-02 4.810757E-03 
2.014238E+03 4.132335E+03 1.977843E+03 2.358668E-02 4.875333E-03 
2.014241E+03 3.922034E+03 1.988581E+03 3.077609E-02 4.959594E-03 
2.014244E+03 3.708260E+03 1.998734E+03 2.891646E-02 5.038763E-03 
2.014247E+03 3.494190E+03 2.008301E+03 2.711833E-02 5.113009E-03 
2.014247E+03 3.489618E+03 2.008503E+03 2.754721E-02 5.114610E-03 
2.014249E+03 3.498783E+03 2.018083E+03 2.749986E-02 5.189900E-03 
2.014252E+03 3.505195E+03 2.027679E+03 2.772598E-02 5.265810E-03 
2.014255E+03 3.511299E+03 2.037293E+03 2.799438E-02 5.342455E-03 
2.014258E+03 3.517309E+03 2.046923E+03 2.830256E-02 5.419943E-03 
2.014260E+03 3.523284E+03 2.056569E+03 2.866452E-02 5.498422E-03 
2.014263E+03 3.529250E+03 2.066231E+03 2.909228E-02 5.578072E-03 
2.014266E+03 3.535222E+03 2.075910E+03 2.959938E-02 5.659111E-03 
2.014268E+03 3.541213E+03 2.085606E+03 3.020270E-02 5.741801E-03 
2.014271E+03 3.547232E+03 2.095317E+03 3.092429E-02 5.826467E-03 
2.014274E+03 3.553294E+03 2.105046E+03 3.179399E-02 5.913515E-03 
2.014277E+03 3.559413E+03 2.114791E+03 3.285378E-02 6.003463E-03 
2.014279E+03 3.565611E+03 2.124553E+03 3.416580E-02 6.097004E-03 
2.014282E+03 3.571922E+03 2.134332E+03 3.582873E-02 6.195098E-03 
2.014285E+03 3.578408E+03 2.144130E+03 3.801715E-02 6.299183E-03 
2.014288E+03 3.585212E+03 2.153945E+03 4.110093E-02 6.411711E-03 
2.014290E+03 3.593659E+03 2.163784E+03 4.640880E-02 6.538772E-03 
2.014293E+03 3.602069E+03 2.173646E+03 6.391377E-02 6.713758E-03 
2.014296E+03 3.608966E+03 2.183527E+03 6.439392E-02 6.890059E-03 
2.014299E+03 3.614842E+03 2.193424E+03 6.458255E-02 7.066877E-03 
2.014301E+03 3.620693E+03 2.203337E+03 6.478058E-02 7.244236E-03 
2.014304E+03 3.626539E+03 2.213266E+03 6.499719E-02 7.422189E-03 
2.014307E+03 3.632385E+03 2.223211E+03 6.523860E-02 7.600802E-03 
2.014310E+03 3.638238E+03 2.233172E+03 6.551213E-02 7.780165E-03 
2.014312E+03 3.644101E+03 2.243149E+03 6.582573E-02 7.960386E-03 
2.014315E+03 3.649977E+03 2.253142E+03 6.618851E-02 8.141600E-03 
2.014318E+03 3.655870E+03 2.263151E+03 6.661134E-02 8.323972E-03 
2.014320E+03 3.661783E+03 2.273176E+03 6.710763E-02 8.507703E-03 
2.014323E+03 3.667720E+03 2.283218E+03 6.769411E-02 8.693039E-03 
2.014326E+03 3.673686E+03 2.293276E+03 6.839219E-02 8.880287E-03 
2.014329E+03 3.679690E+03 2.303350E+03 6.922977E-02 9.069827E-03 
2.014329E+03 3.679820E+03 2.303557E+03 7.019750E-02 9.073777E-03 
2.014332E+03 3.605366E+03 2.313428E+03 6.701299E-02 9.257248E-03 
2.014334E+03 3.535839E+03 2.323109E+03 6.715774E-02 9.441116E-03 
2.014337E+03 3.467410E+03 2.332602E+03 6.888447E-02 9.629711E-03 
2.014340E+03 3.400972E+03 2.341914E+03 7.470209E-02 9.834235E-03 
2.014342E+03 3.336052E+03 2.351047E+03 9.224556E-02 1.008679E-02 
2.014345E+03 3.267984E+03 2.359994E+03 9.035580E-02 1.033417E-02 
2.014348E+03 3.198638E+03 2.368752E+03 8.763795E-02 1.057411E-02 
2.014351E+03 3.129270E+03 2.377319E+03 8.496985E-02 1.080674E-02 
2.014353E+03 3.059937E+03 2.385697E+03 8.240708E-02 1.103236E-02 
2.014356E+03 2.990655E+03 2.393885E+03 7.998675E-02 1.125135E-02 
2.014359E+03 2.921438E+03 2.401883E+03 7.775156E-02 1.146423E-02 
2.014362E+03 2.852314E+03 2.409693E+03 7.577169E-02 1.167168E-02 
2.014364E+03 2.783333E+03 2.417313E+03 7.416934E-02 1.187474E-02 
2.014367E+03 2.714582E+03 2.424745E+03 7.317373E-02 1.207508E-02 
2.014370E+03 2.646252E+03 2.431990E+03 7.332117E-02 1.227582E-02 
2.014373E+03 2.579348E+03 2.439052E+03 7.706383E-02 1.248681E-02 
2.014375E+03 2.514034E+03 2.445935E+03 8.929253E-02 1.273128E-02 
2.014378E+03 2.445783E+03 2.452631E+03 8.682749E-02 1.296900E-02 
2.014381E+03 2.376365E+03 2.459137E+03 8.300563E-02 1.319626E-02 
2.014384E+03 2.306879E+03 2.465453E+03 7.912016E-02 1.341288E-02 
2.014386E+03 2.237383E+03 2.471579E+03 7.524270E-02 1.361888E-02 
2.014389E+03 2.167900E+03 2.477514E+03 7.139900E-02 1.381436E-02 
2.014392E+03 2.098447E+03 2.483259E+03 6.761373E-02 1.399948E-02 
2.014394E+03 2.029047E+03 2.488815E+03 6.391609E-02 1.417447E-02 
2.014397E+03 1.959732E+03 2.494180E+03 6.034455E-02 1.433969E-02 
2.014400E+03 1.890548E+03 2.499356E+03 5.695594E-02 1.449562E-02 
2.014403E+03 1.821578E+03 2.504343E+03 5.384975E-02 1.464306E-02 
2.014405E+03 1.753033E+03 2.509143E+03 5.127341E-02 1.478343E-02 
2.014408E+03 1.686219E+03 2.513760E+03 5.074105E-02 1.492236E-02 
2.014411E+03 1.617854E+03 2.518189E+03 4.850338E-02 1.505515E-02 
2.014414E+03 1.548461E+03 2.522428E+03 4.511982E-02 1.517868E-02 
2.014414E+03 1.546969E+03 2.522518E+03 4.558495E-02 1.518133E-02 
2.014416E+03 1.649046E+03 2.527033E+03 5.979106E-02 1.534503E-02 
2.014419E+03 1.743568E+03 2.531807E+03 6.646358E-02 1.552700E-02 
2.014422E+03 1.836835E+03 2.536836E+03 7.181067E-02 1.572361E-02 
2.014425E+03 1.929694E+03 2.542119E+03 7.675867E-02 1.593376E-02 
2.014427E+03 2.022357E+03 2.547656E+03 8.153725E-02 1.615700E-02 
2.014430E+03 2.114904E+03 2.553446E+03 8.622760E-02 1.639307E-02 
2.014433E+03 2.207373E+03 2.559490E+03 9.086943E-02 1.664186E-02 
2.014436E+03 2.299790E+03 2.565786E+03 9.548547E-02 1.690329E-02 
2.014438E+03 2.392170E+03 2.572336E+03 1.000892E-01 1.717732E-02 
2.014441E+03 2.484515E+03 2.579138E+03 1.046781E-01 1.746391E-02 
2.014444E+03 2.576834E+03 2.586193E+03 1.092599E-01 1.776305E-02 
2.014447E+03 2.669138E+03 2.593501E+03 1.138425E-01 1.807473E-02 
2.014449E+03 2.761431E+03 2.601061E+03 1.184294E-01 1.839897E-02 
2.014452E+03 2.853708E+03 2.608874E+03 1.230088E-01 1.873575E-02 
2.014455E+03 2.945975E+03 2.616940E+03 1.275877E-01 1.908507E-02 
2.014458E+03 3.038240E+03 2.625258E+03 1.321707E-01 1.944693E-02 
2.014460E+03 3.130504E+03 2.633829E+03 1.367565E-01 1.982135E-02 
2.014463E+03 3.222766E+03 2.642652E+03 1.413426E-01 2.020833E-02 
2.014466E+03 3.315027E+03 2.651728E+03 1.459261E-01 2.060785E-02 
2.014468E+03 3.407285E+03 2.661057E+03 1.505044E-01 2.101991E-02 
2.014471E+03 3.499535E+03 2.670638E+03 1.550673E-01 2.144446E-02 
2.014474E+03 3.591781E+03 2.680472E+03 1.596168E-01 2.188147E-02 
2.014477E+03 3.684028E+03 2.690558E+03 1.641568E-01 2.233090E-02 
2.014479E+03 3.776276E+03 2.700897E+03 1.686843E-01 2.279274E-02 
2.014482E+03 3.868522E+03 2.711488E+03 1.731960E-01 2.326692E-02 
2.014485E+03 3.960768E+03 2.722332E+03 1.776894E-01 2.375341E-02 
2.014488E+03 4.053013E+03 2.733429E+03 1.821620E-01 2.425214E-02 
2.014490E+03 4.145257E+03 2.744778E+03 1.866115E-01 2.476305E-02 
2.014493E+03 4.237500E+03 2.756380E+03 1.910357E-01 2.528608E-02 
2.014496E+03 4.329742E+03 2.768234E+03 1.954324E-01 2.582115E-02 
2.014496E+03 4.331637E+03 2.768478E+03 1.974448E-01 2.583225E-02 
2.014499E+03 4.426369E+03 2.780596E+03 2.072664E-01 2.639972E-02 
2.014501E+03 4.518455E+03 2.792967E+03 2.168173E-01 2.699333E-02 
2.014504E+03 4.610023E+03 2.805589E+03 2.259359E-01 2.761191E-02 
2.014507E+03 4.701384E+03 2.818460E+03 2.347399E-01 2.825459E-02 
2.014510E+03 4.792638E+03 2.831582E+03 2.432319E-01 2.892053E-02 
2.014512E+03 4.883825E+03 2.844953E+03 2.514081E-01 2.960884E-02 
2.014515E+03 4.974969E+03 2.858574E+03 2.592719E-01 3.031869E-02 
2.014518E+03 5.066082E+03 2.872444E+03 2.668331E-01 3.104924E-02 
2.014521E+03 5.157170E+03 2.886564E+03 2.741057E-01 3.179970E-02 
2.014523E+03 5.248241E+03 2.900932E+03 2.811067E-01 3.256933E-02 
2.014526E+03 5.339296E+03 2.915551E+03 2.878538E-01 3.335743E-02 
2.014529E+03 5.430340E+03 2.930418E+03 2.943652E-01 3.416336E-02 
2.014531E+03 5.521373E+03 2.945535E+03 3.006582E-01 3.498652E-02 
2.014534E+03 5.612399E+03 2.960901E+03 3.067493E-01 3.582635E-02 
2.014537E+03 5.703417E+03 2.976516E+03 3.126537E-01 3.668235E-02 
2.014540E+03 5.794429E+03 2.992380E+03 3.183855E-01 3.755404E-02 
2.014542E+03 5.885436E+03 3.008494E+03 3.239569E-01 3.844099E-02 
2.014545E+03 5.976438E+03 3.024856E+03 3.293792E-01 3.934278E-02 
2.014548E+03 6.067439E+03 3.041468E+03 3.346712E-01 4.025906E-02 
2.014551E+03 6.158949E+03 3.058330E+03 3.413231E-01 4.119355E-02 
2.014553E+03 6.250244E+03 3.075442E+03 3.479454E-01 4.214617E-02 
2.014556E+03 6.341416E+03 3.092804E+03 3.544010E-01 4.311647E-02 
2.014559E+03 6.432536E+03 3.110416E+03 3.606867E-01 4.410397E-02 
2.014562E+03 6.523624E+03 3.128276E+03 3.667877E-01 4.510818E-02 
2.014564E+03 6.614691E+03 3.146386E+03 3.726981E-01 4.612858E-02 
2.014567E+03 6.705741E+03 3.164746E+03 3.784185E-01 4.716463E-02 
2.014570E+03 6.796777E+03 3.183354E+03 3.839532E-01 4.821584E-02 
2.014573E+03 6.887803E+03 3.202212E+03 3.893089E-01 4.928171E-02 
2.014575E+03 6.978820E+03 3.221319E+03 3.944931E-01 5.036177E-02 
2.014578E+03 7.069828E+03 3.240675E+03 3.995136E-01 5.145558E-02 
2.014581E+03 7.160830E+03 3.260280E+03 4.043778E-01 5.256270E-02 
2.014581E+03 7.162765E+03 3.260697E+03 4.075106E-01 5.258639E-02 
2.014584E+03 7.316464E+03 3.280728E+03 4.272777E-01 5.375622E-02 
2.014586E+03 7.466675E+03 3.301171E+03 4.463330E-01 5.497821E-02 
2.014589E+03 7.616152E+03 3.322023E+03 4.633673E-01 5.624684E-02 
2.014592E+03 7.765334E+03 3.343283E+03 4.785627E-01 5.755707E-02 
2.014595E+03 7.914362E+03 3.364951E+03 4.920782E-01 5.890431E-02 
2.014597E+03 8.063295E+03 3.387027E+03 5.041027E-01 6.028447E-02 
2.014600E+03 8.212165E+03 3.409511E+03 5.148309E-01 6.169400E-02 
2.014603E+03 8.360994E+03 3.432402E+03 5.244472E-01 6.312986E-02 
2.014605E+03 8.509792E+03 3.455701E+03 5.331172E-01 6.458945E-02 
2.014608E+03 8.658569E+03 3.479407E+03 5.409848E-01 6.607059E-02 
2.014611E+03 8.803481E+03 3.503509E+03 4.913018E-01 6.741570E-02 
2.014614E+03 8.948942E+03 3.528010E+03 4.836508E-01 6.873986E-02 
2.014616E+03 9.095938E+03 3.552914E+03 4.821983E-01 7.006005E-02 
2.014619E+03 9.243530E+03 3.578221E+03 4.828603E-01 7.138205E-02 
2.014622E+03 9.391351E+03 3.603933E+03 4.842797E-01 7.270793E-02 
2.014625E+03 9.539292E+03 3.630050E+03 4.859417E-01 7.403837E-02 
2.014627E+03 9.687309E+03 3.656573E+03 4.876198E-01 7.537340E-02 
2.014630E+03 9.835377E+03 3.683500E+03 4.892142E-01 7.671280E-02 
2.014633E+03 9.983485E+03 3.710834E+03 4.906865E-01 7.805622E-02 
2.014636E+03 1.013162E+04 3.738573E+03 4.920294E-01 7.940332E-02 
2.014638E+03 1.027979E+04 3.766717E+03 4.932503E-01 8.075377E-02 
2.014641E+03 1.042798E+04 3.795267E+03 4.943629E-01 8.210726E-02 
2.014644E+03 1.057619E+04 3.824223E+03 4.970560E-01 8.346813E-02 
2.014647E+03 1.072442E+04 3.853585E+03 4.979802E-01 8.483152E-02 
2.014649E+03 1.086917E+04 3.883343E+03 4.669937E-01 8.611008E-02 
2.014652E+03 1.101599E+04 3.913504E+03 4.517051E-01 8.734678E-02 
2.014655E+03 1.115972E+04 3.944057E+03 4.417351E-01 8.855619E-02 
2.014657E+03 1.130560E+04 3.975010E+03 4.341561E-01 8.974484E-02 
2.014660E+03 1.145240E+04 4.006365E+03 4.282800E-01 9.091741E-02 
2.014663E+03 1.159956E+04 4.038123E+03 4.234835E-01 9.207684E-02 
2.014666E+03 1.174692E+04 4.070284E+03 4.194320E-01 9.322519E-02 
2.014666E+03 1.175006E+04 4.070967E+03 4.206242E-01 9.324964E-02 
2.014668E+03 1.189054E+04 4.103522E+03 4.260423E-01 9.441608E-02 
2.014671E+03 1.202868E+04 4.136455E+03 4.305353E-01 9.559482E-02 
2.014674E+03 1.216645E+04 4.169765E+03 4.329853E-01 9.678027E-02 
2.014677E+03 1.230413E+04 4.203452E+03 4.337870E-01 9.796791E-02 
2.014679E+03 1.244179E+04 4.237515E+03 4.333967E-01 9.915449E-02 
2.014682E+03 1.257554E+04 4.271945E+03 4.058438E-01 1.002656E-01 
2.014685E+03 1.271159E+04 4.306748E+03 3.921875E-01 1.013394E-01 
2.014688E+03 1.284293E+04 4.341910E+03 3.803991E-01 1.023809E-01 
2.014690E+03 1.297832E+04 4.377442E+03 3.718042E-01 1.033988E-01 
2.014693E+03 1.311455E+04 4.413348E+03 3.646898E-01 1.043973E-01 
2.014696E+03 1.325113E+04 4.449628E+03 3.584373E-01 1.053786E-01 
2.014699E+03 1.338792E+04 4.486282E+03 3.527451E-01 1.063444E-01 
2.014701E+03 1.352484E+04 4.523311E+03 3.474634E-01 1.072957E-01 
2.014704E+03 1.366187E+04 4.560715E+03 3.425188E-01 1.082334E-01 
2.014707E+03 1.379898E+04 4.598494E+03 3.378746E-01 1.091585E-01 
2.014710E+03 1.393616E+04 4.636650E+03 3.335112E-01 1.100716E-01 
2.014712E+03 1.406744E+04 4.675164E+03 2.987210E-01 1.108895E-01 
2.014715E+03 1.419868E+04 4.714038E+03 2.943354E-01 1.116953E-01 
2.014718E+03 1.433258E+04 4.753279E+03 2.872773E-01 1.124818E-01 
2.014721E+03 1.446803E+04 4.792890E+03 2.812392E-01 1.132518E-01 
2.014723E+03 1.460402E+04 4.832873E+03 2.762615E-01 1.140082E-01 
2.014726E+03 1.474030E+04 4.873230E+03 2.720581E-01 1.147530E-01 
2.014729E+03 1.487677E+04 4.913961E+03 2.683678E-01 1.154878E-01 
2.014731E+03 1.501338E+04 4.955065E+03 2.650066E-01 1.162133E-01 
2.014734E+03 1.515010E+04 4.996544E+03 2.618578E-01 1.169303E-01 
2.014737E+03 1.528690E+04 5.038397E+03 2.588523E-01 1.176390E-01 
2.014740E+03 1.520704E+04 5.080032E+03 1.950854E-01 1.181731E-01 
2.014742E+03 1.522928E+04 5.121727E+03 1.968754E-01 1.187121E-01 
2.014745E+03 1.516338E+04 5.163242E+03 1.771767E-01 1.191972E-01 
2.014748E+03 1.522813E+04 5.204934E+03 1.650262E-01 1.196490E-01 
2.014748E+03 1.522989E+04 5.205791E+03 1.647529E-01 1.196583E-01 
2.014751E+03 1.515851E+04 5.247293E+03 1.545632E-01 1.200814E-01 
2.014753E+03 1.509730E+04 5.288627E+03 1.462987E-01 1.204820E-01 
2.014756E+03 1.503819E+04 5.329800E+03 1.394550E-01 1.208638E-01 
2.014759E+03 1.498044E+04 5.370814E+03 1.336741E-01 1.212298E-01 
2.014762E+03 1.492375E+04 5.411673E+03 1.287170E-01 1.215822E-01 
2.014764E+03 1.486793E+04 5.452379E+03 1.244206E-01 1.219228E-01 
2.014767E+03 1.481287E+04 5.492934E+03 1.206664E-01 1.222532E-01 
2.014770E+03 1.475845E+04 5.533341E+03 1.173632E-01 1.225745E-01 
2.014773E+03 1.470460E+04 5.573600E+03 1.144387E-01 1.228878E-01 
2.014775E+03 1.465126E+04 5.613713E+03 1.118342E-01 1.231940E-01 
2.014778E+03 1.459838E+04 5.653681E+03 1.095015E-01 1.234938E-01 
2.014781E+03 1.454589E+04 5.693505E+03 1.074010E-01 1.237878E-01 
2.014784E+03 1.449377E+04 5.733187E+03 1.054997E-01 1.240767E-01 
2.014786E+03 1.444198E+04 5.772727E+03 1.037702E-01 1.243608E-01 
2.014789E+03 1.439049E+04 5.812126E+03 1.021899E-01 1.246406E-01 
2.014792E+03 1.433926E+04 5.851385E+03 1.007396E-01 1.249164E-01 
2.014794E+03 1.428829E+04 5.890504E+03 9.940329E-02 1.251885E-01 
2.014797E+03 1.423755E+04 5.929484E+03 9.816759E-02 1.254573E-01 
2.014800E+03 1.418701E+04 5.968326E+03 9.702110E-02 1.257229E-01 
2.014803E+03 1.413666E+04 6.007030E+03 9.595413E-02 1.259856E-01 
2.014805E+03 1.408649E+04 6.045597E+03 9.495845E-02 1.262456E-01 
2.014808E+03 1.403648E+04 6.084027E+03 9.402698E-02 1.265031E-01 
2.014811E+03 1.398662E+04 6.122320E+03 9.315365E-02 1.267581E-01 
2.014814E+03 1.393690E+04 6.160477E+03 9.233319E-02 1.270109E-01 
2.014816E+03 1.382297E+04 6.198323E+03 8.866327E-02 1.272536E-01 
2.014819E+03 1.369184E+04 6.235809E+03 8.547249E-02 1.274877E-01 
2.014822E+03 1.360628E+04 6.273061E+03 8.506383E-02 1.277205E-01 
2.014825E+03 1.353234E+04 6.310110E+03 8.487787E-02 1.279529E-01 
2.014827E+03 1.346437E+04 6.346974E+03 8.462787E-02 1.281846E-01 
2.014830E+03 1.340016E+04 6.383661E+03 8.429104E-02 1.284154E-01 
2.014833E+03 1.333856E+04 6.420180E+03 8.389266E-02 1.286451E-01 
2.014833E+03 1.333730E+04 6.420956E+03 8.383329E-02 1.286500E-01 
2.014836E+03 1.322018E+04 6.457151E+03 8.091616E-02 1.288715E-01 
2.014838E+03 1.311124E+04 6.493047E+03 7.783470E-02 1.290846E-01 
2.014841E+03 1.300526E+04 6.528654E+03 7.516597E-02 1.292904E-01 
2.014844E+03 1.290332E+04 6.563981E+03 7.309857E-02 1.294905E-01 
2.014847E+03 1.280833E+04 6.599048E+03 7.163874E-02 1.296867E-01 
2.014849E+03 1.273027E+04 6.633902E+03 7.086439E-02 1.298807E-01 
2.014852E+03 1.271283E+04 6.668708E+03 7.166663E-02 1.300769E-01 
2.014855E+03 1.258833E+04 6.703173E+03 7.023707E-02 1.302692E-01 
2.014858E+03 1.246400E+04 6.737297E+03 6.908813E-02 1.304583E-01 
2.014860E+03 1.233976E+04 6.771082E+03 6.809984E-02 1.306448E-01 
2.014863E+03 1.221559E+04 6.804526E+03 6.719132E-02 1.308287E-01 
2.014866E+03 1.209150E+04 6.837631E+03 6.631040E-02 1.310103E-01 
2.014868E+03 1.196748E+04 6.870396E+03 6.542374E-02 1.311894E-01 
2.014871E+03 1.184354E+04 6.902822E+03 6.450962E-02 1.313660E-01 
2.014874E+03 1.171967E+04 6.934909E+03 6.355346E-02 1.315400E-01 
2.014877E+03 1.159589E+04 6.966656E+03 6.254500E-02 1.317113E-01 
2.014879E+03 1.147219E+04 6.998066E+03 6.147672E-02 1.318796E-01 
2.014882E+03 1.134858E+04 7.029136E+03 6.034279E-02 1.320448E-01 
2.014885E+03 1.122507E+04 7.059869E+03 5.913851E-02 1.322067E-01 
2.014888E+03 1.110166E+04 7.090263E+03 5.785993E-02 1.323651E-01 
2.014890E+03 1.097836E+04 7.120321E+03 5.650368E-02 1.325198E-01 
2.014893E+03 1.085518E+04 7.150040E+03 5.506677E-02 1.326706E-01 
2.014896E+03 1.073213E+04 7.179423E+03 5.354663E-02 1.328172E-01 
2.014899E+03 1.060921E+04 7.208470E+03 5.194590E-02 1.329594E-01 
2.014901E+03 1.048642E+04 7.237180E+03 5.034485E-02 1.330972E-01 
2.014904E+03 1.036381E+04 7.265555E+03 4.874793E-02 1.332307E-01 
2.014907E+03 1.024138E+04 7.293594E+03 4.715750E-02 1.333598E-01 
2.014910E+03 1.011914E+04 7.321299E+03 4.557552E-02 1.334846E-01 
2.014912E+03 9.997115E+03 7.348669E+03 4.400378E-02 1.336051E-01 
2.014915E+03 9.875325E+03 7.375707E+03 4.247851E-02 1.337214E-01 
2.014915E+03 9.872825E+03 7.376262E+03 4.242063E-02 1.337238E-01 
2.014918E+03 9.770487E+03 7.403012E+03 4.120182E-02 1.338366E-01 
2.014921E+03 9.671426E+03 7.429491E+03 4.029958E-02 1.339469E-01 
2.014923E+03 9.573927E+03 7.455703E+03 3.958448E-02 1.340553E-01 
2.014926E+03 9.478486E+03 7.481654E+03 3.895435E-02 1.341619E-01 
2.014929E+03 9.385712E+03 7.507350E+03 3.834508E-02 1.342669E-01 
2.014931E+03 9.296757E+03 7.532803E+03 3.772469E-02 1.343702E-01 
2.014934E+03 9.213993E+03 7.558030E+03 3.710087E-02 1.344718E-01 
2.014937E+03 9.144308E+03 7.583066E+03 3.660094E-02 1.345720E-01 
2.014940E+03 9.139137E+03 7.608087E+03 3.743152E-02 1.346745E-01 
2.014942E+03 9.051691E+03 7.632870E+03 3.497091E-02 1.347702E-01 
2.014945E+03 8.983817E+03 7.657466E+03 3.230488E-02 1.348586E-01 
2.014948E+03 8.943863E+03 7.681953E+03 2.965926E-02 1.349399E-01 
2.014951E+03 8.830473E+03 7.706129E+03 2.514555E-02 1.350087E-01 
2.014953E+03 8.717116E+03 7.729996E+03 2.225446E-02 1.350696E-01 
2.014956E+03 8.603790E+03 7.753551E+03 2.047236E-02 1.351257E-01 
2.014959E+03 8.490479E+03 7.776797E+03 1.945961E-02 1.351790E-01 
2.014962E+03 8.377180E+03 7.799733E+03 1.898937E-02 1.352309E-01 
2.014964E+03 8.263894E+03 7.822358E+03 1.890999E-02 1.352827E-01 
2.014967E+03 8.150621E+03 7.844673E+03 1.912060E-02 1.353351E-01 
2.014970E+03 8.037361E+03 7.866678E+03 1.955499E-02 1.353886E-01 
2.014973E+03 7.924117E+03 7.888373E+03 2.017088E-02 1.354438E-01 
2.014975E+03 7.810890E+03 7.909758E+03 2.094284E-02 1.355012E-01 
2.014978E+03 7.697683E+03 7.930833E+03 2.185776E-02 1.355610E-01 
2.014981E+03 7.584499E+03 7.951599E+03 2.291190E-02 1.356237E-01 
2.014984E+03 7.471335E+03 7.972054E+03 2.410989E-02 1.356897E-01 
2.014986E+03 7.358185E+03 7.992200E+03 2.546528E-02 1.357595E-01 
2.014989E+03 7.245079E+03 8.012036E+03 2.699776E-02 1.358334E-01 
2.014992E+03 7.132024E+03 8.031562E+03 2.873317E-02 1.359121E-01 
2.014994E+03 7.019029E+03 8.050779E+03 3.070949E-02 1.359961E-01 
2.014997E+03 6.906110E+03 8.069687E+03 3.298195E-02 1.360864E-01 
2.015000E+03 6.793289E+03 8.088286E+03 3.563233E-02 1.361840E-01 
2.015000E+03 6.790924E+03 8.088681E+03 3.591420E-02 1.361861E-01 
2.015003E+03 6.722739E+03 8.107087E+03 3.961173E-02 1.362945E-01 
2.015005E+03 6.655844E+03 8.125309E+03 4.478382E-02 1.364171E-01 
2.015008E+03 6.590113E+03 8.143352E+03 5.199235E-02 1.365595E-01 
2.015011E+03 6.525113E+03 8.161217E+03 6.371689E-02 1.367339E-01 
2.015014E+03 6.460920E+03 8.178906E+03 1.038845E-01 1.370184E-01 
2.015016E+03 6.393774E+03 8.196411E+03 1.019280E-01 1.372974E-01 
2.015019E+03 6.325680E+03 8.213730E+03 9.993339E-02 1.375710E-01 
2.015022E+03 6.257580E+03 8.230862E+03 9.805327E-02 1.378395E-01 
2.015025E+03 6.189492E+03 8.247808E+03 9.629927E-02 1.381031E-01 
2.015027E+03 6.121419E+03 8.264568E+03 9.467946E-02 1.383623E-01 
2.015030E+03 6.053359E+03 8.281141E+03 9.320261E-02 1.386175E-01 
2.015033E+03 5.985316E+03 8.297528E+03 9.187921E-02 1.388691E-01 
2.015036E+03 5.917289E+03 8.313728E+03 9.072202E-02 1.391175E-01 
2.015038E+03 5.849282E+03 8.329743E+03 8.974664E-02 1.393632E-01 
2.015041E+03 5.781299E+03 8.345571E+03 8.897238E-02 1.396068E-01 
2.015044E+03 5.713342E+03 8.361213E+03 8.842346E-02 1.398489E-01 