TITLE = ""
VARIABLES ="simulation time, " "Aqueous Volumetric Flux Rate (1)" "Aqueous Volumetric Flux Integral (1)" "Conservation Component Species Flux (total_cr6) Rate (2)" "Conservation Component Species Flux (total_cr6) Integral (2)"
ZONE T="Reference Node Variables" F=POINT
2.014000E+03 5.943314E+02 1.627191E-06 0.000000E+00 0.000000E+00 
2.014000E+03 5.955410E+02 3.665319E-06 6.706488E-11 2.295170E-19 
2.014000E+03 5.970288E+02 6.219343E-06 1.508960E-10 8.750337E-19 
2.014000E+03 5.988466E+02 9.421594E-06 2.556848E-10 2.242274E-18 
2.014000E+03 6.010630E+02 1.343922E-05 3.866709E-10 4.826862E-18 
2.014000E+03 6.037550E+02 1.848375E-05 5.504035E-10 9.425625E-18 
2.014000E+03 6.070084E+02 2.482339E-05 7.550692E-10 1.731162E-17 
2.014000E+03 6.109167E+02 3.279896E-05 1.010901E-09 3.050903E-17 
2.014000E+03 6.155768E+02 4.284448E-05 1.330692E-09 5.222440E-17 
2.014000E+03 6.210831E+02 5.551369E-05 1.730429E-09 8.752270E-17 
2.014000E+03 6.275172E+02 7.151426E-05 2.230101E-09 1.443863E-16 
2.014000E+03 6.349344E+02 9.175139E-05 2.854692E-09 2.353733E-16 
2.014000E+03 6.433461E+02 1.173829E-04 3.635429E-09 3.802123E-16 
2.014000E+03 6.526988E+02 1.498881E-04 4.611352E-09 6.098633E-16 
2.014000E+03 6.628541E+02 1.911518E-04 5.831257E-09 9.728679E-16 
2.014000E+03 6.735745E+02 2.435656E-04 7.356140E-09 1.545281E-15 
2.014000E+03 6.845227E+02 3.101477E-04 9.262248E-09 2.446202E-15 
2.014000E+03 6.952852E+02 3.946840E-04 1.164490E-08 3.862046E-15 
2.014000E+03 7.054245E+02 5.018953E-04 1.462323E-08 6.084503E-15 
2.014000E+03 7.145577E+02 6.376445E-04 1.834620E-08 9.569851E-15 
2.014000E+03 7.224440E+02 8.092038E-04 2.300001E-08 1.503168E-14 
2.014000E+03 7.290499E+02 1.025614E-03 2.881748E-08 2.358581E-14 
2.014000E+03 7.345599E+02 1.298171E-03 3.608972E-08 3.697683E-14 
2.014000E+03 7.393193E+02 1.641074E-03 4.518081E-08 5.793214E-14 
2.014000E+03 7.437292E+02 2.072261E-03 5.654616E-08 9.071548E-14 
2.014000E+03 7.481369E+02 2.614438E-03 7.075566E-08 1.419923E-13 
2.014000E+03 7.527642E+02 3.296351E-03 8.852273E-08 2.221832E-13 
2.014000E+03 7.576849E+02 4.154314E-03 1.107410E-07 3.475805E-13 
2.014000E+03 7.628385E+02 5.234063E-03 1.385304E-07 5.436614E-13 
2.014000E+03 7.679174E+02 6.592735E-03 1.733131E-07 8.503034E-13 
2.014000E+03 7.726486E+02 8.301539E-03 2.168750E-07 1.329948E-12 
2.014000E+03 7.768011E+02 1.044902E-02 2.714667E-07 2.080424E-12 
2.014000E+03 7.802216E+02 1.314520E-02 3.399278E-07 3.255097E-12 
2.014000E+03 7.828699E+02 1.652686E-02 4.258400E-07 5.094541E-12 
2.014000E+03 7.848243E+02 2.076448E-02 5.337203E-07 7.976342E-12 
2.014000E+03 7.862494E+02 2.607114E-02 6.692633E-07 1.249342E-11 
2.014000E+03 7.873392E+02 3.271364E-02 8.396432E-07 1.957720E-11 
2.014000E+03 7.882626E+02 4.102652E-02 1.053886E-06 3.069129E-11 
2.014000E+03 7.891319E+02 5.142907E-02 1.323323E-06 4.813569E-11 
2.014000E+03 7.899988E+02 6.444654E-02 1.662132E-06 7.552403E-11 
2.014000E+03 7.908685E+02 8.073630E-02 2.087982E-06 1.185308E-10 
2.014000E+03 7.917055E+02 1.011200E-01 2.622833E-06 1.860599E-10 
2.014000E+03 7.923307E+02 1.266198E-01 3.295364E-06 2.921155E-10 
2.014000E+03 7.927093E+02 1.585098E-01 4.142922E-06 4.587816E-10 
2.014000E+03 7.930430E+02 1.983891E-01 5.211387E-06 7.208433E-10 
2.014000E+03 7.933669E+02 2.482585E-01 6.558538E-06 1.133100E-09 
2.014000E+03 7.936758E+02 3.106196E-01 8.257117E-06 1.781882E-09 
2.014000E+03 7.939581E+02 3.885986E-01 1.039886E-05 2.803212E-09 
2.014001E+03 7.942043E+02 4.861027E-01 1.309993E-05 4.411483E-09 
2.014001E+03 7.944100E+02 6.080143E-01 1.650817E-05 6.944857E-09 
2.014001E+03 7.945763E+02 7.604357E-01 2.081297E-05 1.093735E-08 
2.014001E+03 7.947087E+02 9.509943E-01 2.625824E-05 1.723366E-08 
2.014001E+03 7.948144E+02 1.189224E+00 3.315957E-05 2.717259E-08 
2.014002E+03 7.949002E+02 1.487044E+00 4.192720E-05 4.288115E-08 
2.014002E+03 7.949703E+02 1.859351E+00 5.309756E-05 6.774824E-08 
2.014003E+03 7.950276E+02 2.324768E+00 6.737723E-05 1.071916E-07 
2.014004E+03 7.950735E+02 2.906574E+00 8.570539E-05 1.699076E-07 
2.014005E+03 7.951093E+02 3.633863E+00 1.093429E-04 2.699240E-07 
2.014006E+03 7.951363E+02 4.543006E+00 1.399997E-04 4.299968E-07 
2.014007E+03 7.951561E+02 5.679463E+00 1.800193E-04 6.872849E-07 
2.014009E+03 7.951701E+02 7.100059E+00 2.326441E-04 1.102911E-06 
2.014011E+03 7.951797E+02 8.875825E+00 3.024012E-04 1.778222E-06 
2.014014E+03 7.951858E+02 1.105293E+01 3.950395E-04 2.859781E-06 
2.014017E+03 7.951892E+02 1.323003E+01 5.085196E-04 4.252032E-06 
2.014019E+03 7.951912E+02 1.540715E+01 6.290091E-04 5.974165E-06 
2.014022E+03 7.951923E+02 1.758427E+01 7.563337E-04 8.044894E-06 
2.014025E+03 7.951929E+02 1.976139E+01 8.903252E-04 1.048247E-05 
2.014028E+03 7.951933E+02 2.193851E+01 1.030820E-03 1.330470E-05 
2.014030E+03 7.951935E+02 2.411563E+01 1.177657E-03 1.652895E-05 
2.014033E+03 7.951935E+02 2.629275E+01 1.330679E-03 2.017215E-05 
2.014036E+03 7.951935E+02 2.846987E+01 1.489734E-03 2.425082E-05 
2.014039E+03 7.951935E+02 3.064699E+01 1.654670E-03 2.878106E-05 
2.014041E+03 7.951934E+02 3.282411E+01 1.825339E-03 3.377856E-05 
2.014044E+03 7.951934E+02 3.500123E+01 2.001597E-03 3.925864E-05 
2.014047E+03 7.951933E+02 3.717835E+01 2.183301E-03 4.523619E-05 
2.014049E+03 7.951932E+02 3.935548E+01 2.370312E-03 5.172575E-05 
2.014052E+03 7.951931E+02 4.153260E+01 2.562494E-03 5.874148E-05 
2.014055E+03 7.951930E+02 4.370971E+01 2.759713E-03 6.629716E-05 
2.014058E+03 7.951929E+02 4.588683E+01 2.961836E-03 7.440622E-05 
2.014060E+03 7.951928E+02 4.806395E+01 3.168735E-03 8.308175E-05 
2.014063E+03 7.951927E+02 5.024107E+01 3.380284E-03 9.233646E-05 
2.014066E+03 7.951927E+02 5.241819E+01 3.596358E-03 1.021828E-04 
2.014069E+03 7.951926E+02 5.459531E+01 3.816837E-03 1.126327E-04 
2.014071E+03 7.951925E+02 5.677243E+01 4.041600E-03 1.236980E-04 
2.014074E+03 7.951924E+02 5.894955E+01 4.270531E-03 1.353901E-04 
2.014077E+03 7.951924E+02 6.112666E+01 4.503516E-03 1.477200E-04 
2.014080E+03 7.951923E+02 6.330378E+01 4.740443E-03 1.606986E-04 
2.014082E+03 7.951923E+02 6.548090E+01 4.981200E-03 1.743364E-04 
2.014085E+03 7.951922E+02 6.753375E+01 5.215375E-03 1.878003E-04 
2.014088E+03 7.895401E+02 6.969539E+01 5.467234E-03 2.027688E-04 
2.014090E+03 7.836663E+02 7.184096E+01 5.715159E-03 2.184160E-04 
2.014093E+03 7.777585E+02 7.397034E+01 5.961662E-03 2.347382E-04 
2.014096E+03 7.718405E+02 7.608353E+01 6.207669E-03 2.517339E-04 
2.014099E+03 7.659198E+02 7.818050E+01 6.453329E-03 2.694021E-04 
2.014101E+03 7.599996E+02 8.026127E+01 6.698577E-03 2.877418E-04 
2.014104E+03 7.540815E+02 8.232583E+01 6.943278E-03 3.067515E-04 
2.014107E+03 7.481666E+02 8.437420E+01 7.187268E-03 3.264291E-04 
2.014110E+03 7.422552E+02 8.640638E+01 7.430381E-03 3.467724E-04 
2.014112E+03 7.363477E+02 8.842239E+01 7.672449E-03 3.677784E-04 
2.014115E+03 7.304443E+02 9.042224E+01 7.913314E-03 3.894439E-04 
2.014118E+03 7.245449E+02 9.240594E+01 8.152822E-03 4.117651E-04 
2.014121E+03 7.186496E+02 9.437349E+01 8.390829E-03 4.347380E-04 
2.014123E+03 7.127583E+02 9.632492E+01 8.627197E-03 4.583579E-04 
2.014126E+03 7.068711E+02 9.826022E+01 8.861796E-03 4.826202E-04 
2.014129E+03 7.009879E+02 1.001794E+02 9.094504E-03 5.075196E-04 
2.014131E+03 6.951086E+02 1.020825E+02 9.325204E-03 5.330506E-04 
2.014134E+03 6.892332E+02 1.039695E+02 9.553786E-03 5.592075E-04 
2.014137E+03 6.833615E+02 1.058405E+02 9.780146E-03 5.859840E-04 
2.014140E+03 6.774936E+02 1.076954E+02 1.000418E-02 6.133740E-04 
2.014142E+03 6.716293E+02 1.095342E+02 1.022581E-02 6.413707E-04 
2.014145E+03 6.657686E+02 1.113570E+02 1.044493E-02 6.699674E-04 
2.014148E+03 6.599113E+02 1.131637E+02 1.066146E-02 6.991569E-04 
2.014151E+03 6.540575E+02 1.149544E+02 1.087532E-02 7.289319E-04 
2.014153E+03 6.482071E+02 1.167291E+02 1.108643E-02 7.592849E-04 
2.014156E+03 6.423600E+02 1.184878E+02 1.129473E-02 7.902082E-04 
2.014159E+03 6.365161E+02 1.202305E+02 1.150013E-02 8.216938E-04 
2.014162E+03 6.306753E+02 1.219572E+02 1.170258E-02 8.537337E-04 
2.014162E+03 6.305636E+02 1.219903E+02 1.174347E-02 8.543504E-04 
2.014164E+03 6.339549E+02 1.237260E+02 1.179143E-02 8.866335E-04 
2.014167E+03 6.384170E+02 1.254738E+02 1.197919E-02 9.194308E-04 
2.014170E+03 6.430801E+02 1.272345E+02 1.219628E-02 9.528224E-04 
2.014173E+03 6.478431E+02 1.290082E+02 1.242804E-02 9.868485E-04 
2.014175E+03 6.526755E+02 1.307951E+02 1.266916E-02 1.021535E-03 
2.014178E+03 6.575657E+02 1.325954E+02 1.291739E-02 1.056901E-03 
2.014181E+03 6.625095E+02 1.344093E+02 1.317190E-02 1.092963E-03 
2.014184E+03 6.675076E+02 1.362368E+02 1.343268E-02 1.129740E-03 
2.014186E+03 6.725644E+02 1.380782E+02 1.370041E-02 1.167250E-03 
2.014189E+03 6.776884E+02 1.399336E+02 1.397637E-02 1.205515E-03 
2.014192E+03 6.828948E+02 1.418033E+02 1.426272E-02 1.244564E-03 
2.014194E+03 6.882114E+02 1.436875E+02 1.456298E-02 1.284435E-03 
2.014197E+03 6.936997E+02 1.455868E+02 1.488368E-02 1.325185E-03 
2.014200E+03 6.996079E+02 1.475022E+02 1.524426E-02 1.366921E-03 
2.014203E+03 7.053446E+02 1.494333E+02 1.561825E-02 1.409682E-03 
2.014205E+03 7.104736E+02 1.513785E+02 1.599384E-02 1.453470E-03 
2.014208E+03 7.157783E+02 1.533382E+02 1.646049E-02 1.498537E-03 
2.014211E+03 7.218816E+02 1.553146E+02 1.738618E-02 1.546137E-03 
2.014214E+03 7.264805E+02 1.573036E+02 1.736685E-02 1.593685E-03 
2.014216E+03 7.310649E+02 1.593051E+02 1.734490E-02 1.641173E-03 
2.014219E+03 7.356531E+02 1.613192E+02 1.732111E-02 1.688596E-03 
2.014222E+03 7.402437E+02 1.633459E+02 1.729556E-02 1.735948E-03 
2.014225E+03 7.448364E+02 1.653852E+02 1.726847E-02 1.783227E-03 
2.014227E+03 7.494308E+02 1.674370E+02 1.724003E-02 1.830427E-03 
2.014230E+03 7.540268E+02 1.695014E+02 1.721047E-02 1.877547E-03 
2.014233E+03 7.586242E+02 1.715784E+02 1.718000E-02 1.924583E-03 
2.014236E+03 7.632229E+02 1.736680E+02 1.714882E-02 1.971534E-03 
2.014238E+03 7.678228E+02 1.757702E+02 1.711715E-02 2.018399E-03 
2.014241E+03 7.724239E+02 1.778849E+02 1.708518E-02 2.065175E-03 
2.014244E+03 7.770260E+02 1.800123E+02 1.705309E-02 2.111864E-03 
2.014247E+03 7.816291E+02 1.821523E+02 1.702106E-02 2.158465E-03 
2.014247E+03 7.817270E+02 1.821978E+02 1.703991E-02 2.159456E-03 
2.014249E+03 7.797953E+02 1.843327E+02 1.636921E-02 2.204272E-03 
2.014252E+03 7.787409E+02 1.864648E+02 1.592578E-02 2.247875E-03 
2.014255E+03 7.778620E+02 1.885945E+02 1.556989E-02 2.290503E-03 
2.014258E+03 7.771065E+02 1.907221E+02 1.526072E-02 2.332284E-03 
2.014260E+03 7.764040E+02 1.928477E+02 1.498162E-02 2.373302E-03 
2.014263E+03 7.757320E+02 1.949716E+02 1.472574E-02 2.413619E-03 
2.014266E+03 7.750806E+02 1.970936E+02 1.448948E-02 2.453289E-03 
2.014268E+03 7.744445E+02 1.992140E+02 1.427070E-02 2.492360E-03 
2.014271E+03 7.737936E+02 2.013325E+02 1.407019E-02 2.530882E-03 
2.014274E+03 7.731642E+02 2.034493E+02 1.388855E-02 2.568906E-03 
2.014277E+03 7.725505E+02 2.055644E+02 1.372314E-02 2.606478E-03 
2.014279E+03 7.719476E+02 2.076779E+02 1.357246E-02 2.643638E-03 
2.014282E+03 7.713530E+02 2.097897E+02 1.343568E-02 2.680423E-03 
2.014285E+03 7.707654E+02 2.119000E+02 1.331236E-02 2.716870E-03 
2.014288E+03 7.701839E+02 2.140086E+02 1.320220E-02 2.753016E-03 
2.014290E+03 7.696078E+02 2.161157E+02 1.310503E-02 2.788895E-03 
2.014293E+03 7.690366E+02 2.182212E+02 1.302076E-02 2.824544E-03 
2.014296E+03 7.684702E+02 2.203252E+02 1.294936E-02 2.859997E-03 
2.014299E+03 7.679081E+02 2.224276E+02 1.289087E-02 2.895291E-03 
2.014301E+03 7.673502E+02 2.245285E+02 1.284536E-02 2.930459E-03 
2.014304E+03 7.667964E+02 2.266279E+02 1.281296E-02 2.965539E-03 
2.014307E+03 7.662467E+02 2.287257E+02 1.279387E-02 3.000567E-03 
2.014310E+03 7.657008E+02 2.308221E+02 1.278833E-02 3.035580E-03 
2.014312E+03 7.651588E+02 2.329170E+02 1.279667E-02 3.070615E-03 
2.014315E+03 7.646208E+02 2.350104E+02 1.281928E-02 3.105712E-03 
2.014318E+03 7.640868E+02 2.371024E+02 1.285668E-02 3.140912E-03 
2.014320E+03 7.635535E+02 2.391929E+02 1.290913E-02 3.176255E-03 
2.014323E+03 7.630197E+02 2.412819E+02 1.297761E-02 3.211786E-03 
2.014326E+03 7.624919E+02 2.433695E+02 1.306414E-02 3.247554E-03 
2.014329E+03 7.619707E+02 2.454556E+02 1.316969E-02 3.283610E-03 
2.014329E+03 7.619677E+02 2.454985E+02 1.322292E-02 3.284354E-03 
2.014332E+03 7.572509E+02 2.475718E+02 1.290824E-02 3.319695E-03 
2.014334E+03 7.536789E+02 2.496352E+02 1.294303E-02 3.355131E-03 
2.014337E+03 7.503547E+02 2.516896E+02 1.310548E-02 3.391012E-03 
2.014340E+03 7.471447E+02 2.537351E+02 1.337068E-02 3.427619E-03 
2.014342E+03 7.440196E+02 2.557722E+02 1.375861E-02 3.465288E-03 
2.014345E+03 7.409988E+02 2.578009E+02 1.435810E-02 3.504598E-03 
2.014348E+03 7.380160E+02 2.598215E+02 1.570938E-02 3.547608E-03 
2.014351E+03 7.349754E+02 2.618337E+02 1.563628E-02 3.590418E-03 
2.014353E+03 7.317252E+02 2.638371E+02 1.552803E-02 3.632931E-03 
2.014356E+03 7.284724E+02 2.658315E+02 1.542651E-02 3.675167E-03 
2.014359E+03 7.252269E+02 2.678171E+02 1.533503E-02 3.717152E-03 
2.014362E+03 7.219898E+02 2.697938E+02 1.525411E-02 3.758915E-03 
2.014364E+03 7.187607E+02 2.717617E+02 1.518377E-02 3.800486E-03 
2.014367E+03 7.155390E+02 2.737207E+02 1.512400E-02 3.841894E-03 
2.014370E+03 7.123243E+02 2.756709E+02 1.507484E-02 3.883166E-03 
2.014373E+03 7.091161E+02 2.776124E+02 1.503637E-02 3.924334E-03 
2.014375E+03 7.059141E+02 2.795451E+02 1.500877E-02 3.965425E-03 
2.014378E+03 7.027181E+02 2.814690E+02 1.499226E-02 4.006472E-03 
2.014381E+03 6.995279E+02 2.833842E+02 1.498716E-02 4.047504E-03 
2.014384E+03 6.963435E+02 2.852907E+02 1.499387E-02 4.088555E-03 
2.014386E+03 6.931648E+02 2.871885E+02 1.501289E-02 4.129658E-03 
2.014389E+03 6.899919E+02 2.890776E+02 1.504480E-02 4.170849E-03 
2.014392E+03 6.868248E+02 2.909580E+02 1.509033E-02 4.212164E-03 
2.014394E+03 6.836638E+02 2.928298E+02 1.515037E-02 4.253643E-03 
2.014397E+03 6.805090E+02 2.946929E+02 1.522598E-02 4.295330E-03 
2.014400E+03 6.773608E+02 2.965474E+02 1.531845E-02 4.337270E-03 
2.014403E+03 6.742196E+02 2.983933E+02 1.542939E-02 4.379513E-03 
2.014405E+03 6.710860E+02 3.002307E+02 1.556080E-02 4.422116E-03 
2.014408E+03 6.679607E+02 3.020594E+02 1.571526E-02 4.465142E-03 
2.014411E+03 6.648446E+02 3.038797E+02 1.589610E-02 4.508663E-03 
2.014414E+03 6.617356E+02 3.056914E+02 1.610553E-02 4.552758E-03 
2.014414E+03 6.616810E+02 3.057299E+02 1.620489E-02 4.553700E-03 
2.014416E+03 6.668757E+02 3.075557E+02 1.730346E-02 4.601074E-03 
2.014419E+03 6.711356E+02 3.093932E+02 1.803315E-02 4.650446E-03 
2.014422E+03 6.751602E+02 3.112416E+02 1.865232E-02 4.701513E-03 
2.014425E+03 6.790940E+02 3.131009E+02 1.925029E-02 4.754218E-03 
2.014427E+03 6.829877E+02 3.149708E+02 1.986564E-02 4.808607E-03 
2.014430E+03 6.868663E+02 3.168514E+02 2.052624E-02 4.864805E-03 
2.014433E+03 6.907506E+02 3.187425E+02 2.126766E-02 4.923032E-03 
2.014436E+03 6.946600E+02 3.206444E+02 2.215437E-02 4.983688E-03 
2.014438E+03 6.985388E+02 3.225569E+02 2.336194E-02 5.047649E-03 
2.014441E+03 7.024540E+02 3.244801E+02 2.447242E-02 5.114651E-03 
2.014444E+03 7.062193E+02 3.264136E+02 2.477788E-02 5.182489E-03 
2.014447E+03 7.099467E+02 3.283574E+02 2.506132E-02 5.251103E-03 
2.014449E+03 7.136644E+02 3.303113E+02 2.534170E-02 5.320485E-03 
2.014452E+03 7.173772E+02 3.322753E+02 2.562264E-02 5.390636E-03 
2.014455E+03 7.210867E+02 3.342496E+02 2.590566E-02 5.461562E-03 
2.014458E+03 7.247940E+02 3.362340E+02 2.619164E-02 5.533271E-03 
2.014460E+03 7.284999E+02 3.382285E+02 2.648123E-02 5.605773E-03 
2.014463E+03 7.322047E+02 3.402331E+02 2.677496E-02 5.679078E-03 
2.014466E+03 7.359089E+02 3.422480E+02 2.707329E-02 5.753201E-03 
2.014468E+03 7.396127E+02 3.442729E+02 2.737663E-02 5.828154E-03 
2.014471E+03 7.433164E+02 3.463080E+02 2.768539E-02 5.903953E-03 
2.014474E+03 7.470203E+02 3.483532E+02 2.799994E-02 5.980612E-03 
2.014477E+03 7.507245E+02 3.504086E+02 2.832069E-02 6.058150E-03 
2.014479E+03 7.544292E+02 3.524741E+02 2.864799E-02 6.136584E-03 
2.014482E+03 7.581346E+02 3.545498E+02 2.898226E-02 6.215933E-03 
2.014485E+03 7.618407E+02 3.566356E+02 2.932387E-02 6.296218E-03 
2.014488E+03 7.655477E+02 3.587315E+02 2.967326E-02 6.377458E-03 
2.014490E+03 7.692558E+02 3.608376E+02 3.003084E-02 6.459678E-03 
2.014493E+03 7.729650E+02 3.629539E+02 3.039709E-02 6.542901E-03 
2.014496E+03 7.766755E+02 3.650803E+02 3.077250E-02 6.627152E-03 
2.014496E+03 7.767531E+02 3.651240E+02 3.093243E-02 6.628892E-03 
2.014499E+03 7.791320E+02 3.672572E+02 3.209477E-02 6.716762E-03 
2.014501E+03 7.807748E+02 3.693948E+02 3.276918E-02 6.806480E-03 
2.014504E+03 7.822147E+02 3.715364E+02 3.325738E-02 6.897533E-03 
2.014507E+03 7.835546E+02 3.736817E+02 3.365423E-02 6.989674E-03 
2.014510E+03 7.848540E+02 3.758305E+02 3.401719E-02 7.082808E-03 
2.014512E+03 7.861354E+02 3.779828E+02 3.436803E-02 7.176902E-03 
2.014515E+03 7.874043E+02 3.801386E+02 3.471191E-02 7.271938E-03 
2.014518E+03 7.886635E+02 3.822978E+02 3.505122E-02 7.367903E-03 
2.014521E+03 7.899148E+02 3.844605E+02 3.538773E-02 7.464789E-03 
2.014523E+03 7.911599E+02 3.866266E+02 3.572289E-02 7.562593E-03 
2.014526E+03 7.924000E+02 3.887960E+02 3.605794E-02 7.661315E-03 
2.014529E+03 7.936360E+02 3.909689E+02 3.639387E-02 7.760956E-03 
2.014531E+03 7.948689E+02 3.931451E+02 3.673157E-02 7.861521E-03 
2.014534E+03 7.960992E+02 3.953247E+02 3.707176E-02 7.963018E-03 
2.014537E+03 7.973275E+02 3.975077E+02 3.741509E-02 8.065455E-03 
2.014540E+03 7.985544E+02 3.996940E+02 3.776214E-02 8.168842E-03 
2.014542E+03 7.997800E+02 4.018837E+02 3.811342E-02 8.273191E-03 
2.014545E+03 8.010048E+02 4.040767E+02 3.846943E-02 8.378515E-03 
2.014548E+03 8.022289E+02 4.062731E+02 3.883062E-02 8.484827E-03 
2.014551E+03 8.034526E+02 4.084728E+02 3.919745E-02 8.592144E-03 
2.014553E+03 8.046762E+02 4.106759E+02 3.957036E-02 8.700482E-03 
2.014556E+03 8.058997E+02 4.128824E+02 3.994980E-02 8.809858E-03 
2.014559E+03 8.071232E+02 4.150921E+02 4.033626E-02 8.920293E-03 
2.014562E+03 8.083471E+02 4.173053E+02 4.073023E-02 9.031806E-03 
2.014564E+03 8.095713E+02 4.195218E+02 4.113226E-02 9.144420E-03 
2.014567E+03 8.107960E+02 4.217416E+02 4.154292E-02 9.258158E-03 
2.014570E+03 8.120213E+02 4.239648E+02 4.196286E-02 9.373046E-03 
2.014573E+03 8.132474E+02 4.261913E+02 4.239280E-02 9.489112E-03 
2.014575E+03 8.144744E+02 4.284213E+02 4.283356E-02 9.606384E-03 
2.014578E+03 8.157025E+02 4.306545E+02 4.328606E-02 9.724894E-03 
2.014581E+03 8.169317E+02 4.328912E+02 4.375140E-02 9.844679E-03 
2.014581E+03 8.169592E+02 4.329387E+02 4.393708E-02 9.847233E-03 
2.014584E+03 8.227918E+02 4.351913E+02 4.798638E-02 9.978613E-03 
2.014586E+03 8.272336E+02 4.374562E+02 5.073262E-02 1.011751E-02 
2.014589E+03 8.312994E+02 4.397322E+02 5.312344E-02 1.026296E-02 
2.014592E+03 8.351809E+02 4.420188E+02 5.538795E-02 1.041460E-02 
2.014595E+03 8.389522E+02 4.443157E+02 5.759977E-02 1.057230E-02 
2.014597E+03 8.426495E+02 4.466227E+02 5.978722E-02 1.073599E-02 
2.014600E+03 8.462942E+02 4.489398E+02 6.196221E-02 1.090563E-02 
2.014603E+03 8.498996E+02 4.512667E+02 6.412992E-02 1.108121E-02 
2.014605E+03 8.534751E+02 4.536033E+02 6.629249E-02 1.126271E-02 
2.014608E+03 8.570274E+02 4.559498E+02 6.845058E-02 1.145012E-02 
2.014611E+03 8.605615E+02 4.583058E+02 7.060410E-02 1.164342E-02 
2.014614E+03 8.640812E+02 4.606716E+02 7.275255E-02 1.184260E-02 
2.014616E+03 8.675891E+02 4.630469E+02 7.489524E-02 1.204766E-02 
2.014619E+03 8.710877E+02 4.654318E+02 7.703137E-02 1.225856E-02 
2.014622E+03 8.745785E+02 4.678263E+02 7.916007E-02 1.247529E-02 
2.014625E+03 8.780629E+02 4.702303E+02 8.128049E-02 1.269782E-02 
2.014627E+03 8.815420E+02 4.726438E+02 8.339180E-02 1.292613E-02 
2.014630E+03 8.850166E+02 4.750669E+02 8.549319E-02 1.316020E-02 
2.014633E+03 8.884873E+02 4.774994E+02 8.758388E-02 1.339999E-02 
2.014636E+03 8.919547E+02 4.799414E+02 8.966316E-02 1.364548E-02 
2.014638E+03 8.954192E+02 4.823930E+02 9.173034E-02 1.389662E-02 
2.014641E+03 8.988813E+02 4.848540E+02 9.378479E-02 1.415339E-02 
2.014644E+03 9.023410E+02 4.873244E+02 9.582593E-02 1.441575E-02 
2.014647E+03 9.057989E+02 4.898044E+02 9.785322E-02 1.468365E-02 
2.014649E+03 9.092549E+02 4.922938E+02 9.986615E-02 1.495707E-02 
2.014652E+03 9.127093E+02 4.947926E+02 1.018643E-01 1.523596E-02 
2.014655E+03 9.161623E+02 4.973010E+02 1.038472E-01 1.552028E-02 
2.014657E+03 9.196140E+02 4.998187E+02 1.058144E-01 1.580998E-02 
2.014660E+03 9.230645E+02 5.023459E+02 1.077657E-01 1.610503E-02 
2.014663E+03 9.265138E+02 5.048826E+02 1.097007E-01 1.640537E-02 
2.014666E+03 9.299621E+02 5.074287E+02 1.116191E-01 1.671097E-02 
2.014666E+03 9.300357E+02 5.074828E+02 1.117269E-01 1.671747E-02 
2.014668E+03 9.351332E+02 5.100430E+02 1.163362E-01 1.703598E-02 
2.014671E+03 9.394265E+02 5.126150E+02 1.201075E-01 1.736481E-02 
2.014674E+03 9.434825E+02 5.151981E+02 1.236406E-01 1.770332E-02 
2.014677E+03 9.474254E+02 5.177920E+02 1.270833E-01 1.805126E-02 
2.014679E+03 9.513017E+02 5.203966E+02 1.304800E-01 1.840849E-02 
2.014682E+03 9.551339E+02 5.230116E+02 1.338452E-01 1.877494E-02 
2.014685E+03 9.589345E+02 5.256370E+02 1.371835E-01 1.915053E-02 
2.014688E+03 9.627114E+02 5.282728E+02 1.404952E-01 1.953518E-02 
2.014690E+03 9.664699E+02 5.309188E+02 1.437792E-01 1.992883E-02 
2.014693E+03 9.702140E+02 5.335751E+02 1.470338E-01 2.033139E-02 
2.014696E+03 9.739462E+02 5.362416E+02 1.502572E-01 2.074277E-02 
2.014699E+03 9.776689E+02 5.389183E+02 1.534475E-01 2.116288E-02 
2.014701E+03 9.813837E+02 5.416052E+02 1.566030E-01 2.159164E-02 
2.014704E+03 9.850919E+02 5.443023E+02 1.597223E-01 2.202894E-02 
2.014707E+03 9.887162E+02 5.470092E+02 1.615947E-01 2.247136E-02 
2.014710E+03 9.924230E+02 5.497263E+02 1.623961E-01 2.291597E-02 
2.014712E+03 9.961061E+02 5.524535E+02 1.642356E-01 2.336563E-02 
2.014715E+03 9.998039E+02 5.551908E+02 1.664133E-01 2.382124E-02 
2.014718E+03 1.003501E+03 5.579383E+02 1.687639E-01 2.428329E-02 
2.014721E+03 1.007195E+03 5.606958E+02 1.712207E-01 2.475207E-02 
2.014723E+03 1.010886E+03 5.634635E+02 1.737471E-01 2.522776E-02 
2.014726E+03 1.014574E+03 5.662412E+02 1.763200E-01 2.571050E-02 
2.014729E+03 1.018259E+03 5.690291E+02 1.789234E-01 2.620037E-02 
2.014731E+03 1.021941E+03 5.718270E+02 1.815453E-01 2.669741E-02 
2.014734E+03 1.025622E+03 5.746350E+02 1.841764E-01 2.720166E-02 
2.014737E+03 1.029300E+03 5.774531E+02 1.868096E-01 2.771311E-02 
2.014740E+03 1.032976E+03 5.802812E+02 1.894387E-01 2.823177E-02 
2.014742E+03 1.036649E+03 5.831194E+02 1.920587E-01 2.875760E-02 
2.014745E+03 1.040322E+03 5.859676E+02 1.946655E-01 2.929056E-02 
2.014748E+03 1.043992E+03 5.888259E+02 1.972553E-01 2.983062E-02 
2.014748E+03 1.044071E+03 5.888847E+02 1.971380E-01 2.984171E-02 
2.014751E+03 1.045022E+03 5.917458E+02 1.980334E-01 3.038389E-02 
2.014753E+03 1.046425E+03 5.946107E+02 1.991595E-01 3.092916E-02 
2.014756E+03 1.047948E+03 5.974798E+02 2.003587E-01 3.147772E-02 
2.014759E+03 1.049524E+03 6.003533E+02 2.015622E-01 3.202956E-02 
2.014762E+03 1.051130E+03 6.032311E+02 2.027495E-01 3.258466E-02 
2.014764E+03 1.052756E+03 6.061134E+02 2.039140E-01 3.314295E-02 
2.014767E+03 1.054395E+03 6.090002E+02 2.050540E-01 3.370435E-02 
2.014770E+03 1.056044E+03 6.118915E+02 2.061696E-01 3.426881E-02 
2.014773E+03 1.057701E+03 6.147873E+02 2.072614E-01 3.483627E-02 
2.014775E+03 1.059364E+03 6.176877E+02 2.083305E-01 3.540664E-02 
2.014778E+03 1.061031E+03 6.205926E+02 2.093780E-01 3.597989E-02 
2.014781E+03 1.062702E+03 6.235022E+02 2.104048E-01 3.655595E-02 
2.014784E+03 1.064376E+03 6.264163E+02 2.114118E-01 3.713476E-02 
2.014786E+03 1.066053E+03 6.293349E+02 2.123997E-01 3.771628E-02 
2.014789E+03 1.067731E+03 6.322582E+02 2.133693E-01 3.830045E-02 
2.014792E+03 1.069412E+03 6.351861E+02 2.143212E-01 3.888723E-02 
2.014794E+03 1.071094E+03 6.381186E+02 2.152559E-01 3.947657E-02 
2.014797E+03 1.072778E+03 6.410557E+02 2.161738E-01 4.006842E-02 
2.014800E+03 1.074462E+03 6.439974E+02 2.170753E-01 4.066274E-02 
2.014803E+03 1.076148E+03 6.469438E+02 2.179609E-01 4.125949E-02 
2.014805E+03 1.077834E+03 6.498947E+02 2.188307E-01 4.185861E-02 
2.014808E+03 1.079521E+03 6.528503E+02 2.196851E-01 4.246008E-02 
2.014811E+03 1.081208E+03 6.558105E+02 2.205244E-01 4.306384E-02 
2.014814E+03 1.082896E+03 6.587753E+02 2.213487E-01 4.366986E-02 
2.014816E+03 1.084584E+03 6.617447E+02 2.221582E-01 4.427810E-02 
2.014819E+03 1.086273E+03 6.647188E+02 2.229532E-01 4.488851E-02 
2.014822E+03 1.087879E+03 6.676972E+02 2.212057E-01 4.549414E-02 
2.014825E+03 1.089622E+03 6.706804E+02 2.207773E-01 4.609859E-02 
2.014827E+03 1.091269E+03 6.736682E+02 2.206971E-01 4.670283E-02 
2.014830E+03 1.092915E+03 6.766604E+02 2.208097E-01 4.730737E-02 
2.014833E+03 1.094579E+03 6.796572E+02 2.210612E-01 4.791260E-02 
2.014833E+03 1.094629E+03 6.797208E+02 2.207804E-01 4.792544E-02 
2.014836E+03 1.094155E+03 6.827165E+02 2.183199E-01 4.852317E-02 
2.014838E+03 1.094727E+03 6.857137E+02 2.163686E-01 4.911555E-02 
2.014841E+03 1.095549E+03 6.887131E+02 2.145872E-01 4.970306E-02 
2.014844E+03 1.096484E+03 6.917151E+02 2.128599E-01 5.028584E-02 
2.014847E+03 1.097484E+03 6.947199E+02 2.111533E-01 5.086394E-02 
2.014849E+03 1.098526E+03 6.977275E+02 2.094581E-01 5.143741E-02 
2.014852E+03 1.099597E+03 7.007380E+02 2.077730E-01 5.200626E-02 
2.014855E+03 1.100690E+03 7.037515E+02 2.061001E-01 5.257053E-02 
2.014858E+03 1.101799E+03 7.067681E+02 2.044421E-01 5.313026E-02 
2.014860E+03 1.102922E+03 7.097877E+02 2.028022E-01 5.368550E-02 
2.014863E+03 1.104056E+03 7.128105E+02 2.011832E-01 5.423631E-02 
2.014866E+03 1.105200E+03 7.158363E+02 1.995879E-01 5.478276E-02 
2.014868E+03 1.106351E+03 7.188654E+02 1.980184E-01 5.532490E-02 
2.014871E+03 1.107508E+03 7.218976E+02 1.964767E-01 5.586282E-02 
2.014874E+03 1.108672E+03 7.249329E+02 1.949645E-01 5.639661E-02 
2.014877E+03 1.109840E+03 7.279715E+02 1.934830E-01 5.692634E-02 
2.014879E+03 1.111013E+03 7.310133E+02 1.920333E-01 5.745209E-02 
2.014882E+03 1.112190E+03 7.340583E+02 1.906163E-01 5.797397E-02 
2.014885E+03 1.113370E+03 7.371066E+02 1.892325E-01 5.849206E-02 
2.014888E+03 1.114554E+03 7.401580E+02 1.878824E-01 5.900646E-02 
2.014890E+03 1.115740E+03 7.432128E+02 1.865662E-01 5.951725E-02 
2.014893E+03 1.116928E+03 7.462708E+02 1.852841E-01 6.002453E-02 
2.014896E+03 1.118119E+03 7.493320E+02 1.840361E-01 6.052839E-02 
2.014899E+03 1.119312E+03 7.523965E+02 1.828221E-01 6.102893E-02 
2.014901E+03 1.120507E+03 7.554643E+02 1.816419E-01 6.152624E-02 
2.014904E+03 1.121703E+03 7.585353E+02 1.804953E-01 6.202041E-02 
2.014907E+03 1.122901E+03 7.616097E+02 1.793819E-01 6.251153E-02 
2.014910E+03 1.124100E+03 7.646873E+02 1.783014E-01 6.299969E-02 
2.014912E+03 1.125300E+03 7.677682E+02 1.772533E-01 6.348499E-02 
2.014915E+03 1.126502E+03 7.708524E+02 1.762371E-01 6.396750E-02 
2.014915E+03 1.126527E+03 7.709158E+02 1.759887E-01 6.397740E-02 
2.014918E+03 1.123184E+03 7.739909E+02 1.734015E-01 6.445214E-02 
2.014921E+03 1.120283E+03 7.770580E+02 1.709163E-01 6.492009E-02 
2.014923E+03 1.117481E+03 7.801175E+02 1.685404E-01 6.538153E-02 
2.014926E+03 1.114725E+03 7.831695E+02 1.662365E-01 6.583666E-02 
2.014929E+03 1.111994E+03 7.862140E+02 1.639938E-01 6.628565E-02 
2.014931E+03 1.109280E+03 7.892510E+02 1.618088E-01 6.672866E-02 
2.014934E+03 1.106578E+03 7.922807E+02 1.596805E-01 6.716584E-02 
2.014937E+03 1.103885E+03 7.953029E+02 1.576085E-01 6.759735E-02 
2.014940E+03 1.101199E+03 7.983178E+02 1.555927E-01 6.802334E-02 
2.014942E+03 1.098518E+03 8.013254E+02 1.536329E-01 6.844396E-02 
2.014945E+03 1.095842E+03 8.043257E+02 1.517288E-01 6.885937E-02 
2.014948E+03 1.093170E+03 8.073186E+02 1.498801E-01 6.926972E-02 
2.014951E+03 1.090501E+03 8.103042E+02 1.480860E-01 6.967516E-02 
2.014953E+03 1.087835E+03 8.132826E+02 1.463458E-01 7.007583E-02 
2.014956E+03 1.085172E+03 8.162536E+02 1.446589E-01 7.047188E-02 
2.014959E+03 1.082511E+03 8.192174E+02 1.430242E-01 7.086346E-02 
2.014962E+03 1.079852E+03 8.221738E+02 1.414407E-01 7.125071E-02 
2.014964E+03 1.077195E+03 8.251230E+02 1.399074E-01 7.163375E-02 
2.014967E+03 1.074539E+03 8.280650E+02 1.384232E-01 7.201273E-02 
2.014970E+03 1.071885E+03 8.309996E+02 1.369870E-01 7.238778E-02 
2.014973E+03 1.069232E+03 8.339270E+02 1.355975E-01 7.275903E-02 
2.014975E+03 1.066580E+03 8.368472E+02 1.342537E-01 7.312660E-02 
2.014978E+03 1.063929E+03 8.397600E+02 1.329543E-01 7.349061E-02 
2.014981E+03 1.061280E+03 8.426657E+02 1.316981E-01 7.385118E-02 
2.014984E+03 1.058631E+03 8.455640E+02 1.304839E-01 7.420842E-02 
2.014986E+03 1.055983E+03 8.484552E+02 1.293106E-01 7.456245E-02 
2.014989E+03 1.053336E+03 8.513390E+02 1.281769E-01 7.491338E-02 
2.014992E+03 1.050689E+03 8.542157E+02 1.270817E-01 7.526131E-02 
2.014994E+03 1.048043E+03 8.570851E+02 1.260239E-01 7.560635E-02 
2.014997E+03 1.045398E+03 8.599472E+02 1.250023E-01 7.594859E-02 
2.015000E+03 1.042754E+03 8.628021E+02 1.240159E-01 7.628812E-02 
2.015000E+03 1.042697E+03 8.628627E+02 1.238799E-01 7.629532E-02 
2.015003E+03 1.040374E+03 8.657111E+02 1.218375E-01 7.662890E-02 
2.015005E+03 1.038529E+03 8.685544E+02 1.200000E-01 7.695744E-02 
2.015008E+03 1.036793E+03 8.713930E+02 1.182640E-01 7.728123E-02 
2.015011E+03 1.035109E+03 8.742270E+02 1.165916E-01 7.760044E-02 
2.015014E+03 1.033453E+03 8.770564E+02 1.149732E-01 7.791522E-02 
2.015016E+03 1.031817E+03 8.798814E+02 1.134073E-01 7.822571E-02 
2.015019E+03 1.030196E+03 8.827019E+02 1.118951E-01 7.853206E-02 
2.015022E+03 1.028586E+03 8.855180E+02 1.104393E-01 7.883443E-02 
2.015025E+03 1.026985E+03 8.883298E+02 1.090430E-01 7.913297E-02 
2.015027E+03 1.025393E+03 8.911372E+02 1.077100E-01 7.942787E-02 
2.015030E+03 1.023808E+03 8.939402E+02 1.064447E-01 7.971930E-02 
2.015033E+03 1.022232E+03 8.967389E+02 1.052529E-01 8.000746E-02 
2.015036E+03 1.020666E+03 8.995333E+02 1.041427E-01 8.029259E-02 
2.015038E+03 1.019113E+03 9.023235E+02 1.031281E-01 8.057494E-02 
2.015041E+03 1.017598E+03 9.051095E+02 1.022565E-01 8.085490E-02 
2.015044E+03 1.016023E+03 9.078913E+02 1.014298E-01 8.113260E-02 