TITLE = ""
VARIABLES ="simulation time, " "Aqueous Volumetric Flux Rate (1)" "Aqueous Volumetric Flux Integral (1)" "Conservation Component Species Flux (total_cr6) Rate (2)" "Conservation Component Species Flux (total_cr6) Integral (2)"
ZONE T="Reference Node Variables" F=POINT
2.014000E+03 -9.899973E+02 -2.710465E-06 0.000000E+00 0.000000E+00
2.014000E+03 -9.887877E+02 -6.094406E-06 0.000000E+00 0.000000E+00
2.014000E+03 -9.872999E+02 -1.031797E-05 0.000000E+00 0.000000E+00
2.014000E+03 -9.854820E+02 -1.558770E-05 0.000000E+00 0.000000E+00
2.014000E+03 -9.832655E+02 -2.216005E-05 0.000000E+00 0.000000E+00
2.014000E+03 -9.805734E+02 -3.035299E-05 0.000000E+00 0.000000E+00
2.014000E+03 -9.773198E+02 -4.056019E-05 0.000000E+00 0.000000E+00
2.014000E+03 -9.734113E+02 -5.326816E-05 0.000000E+00 0.000000E+00
2.014000E+03 -9.687508E+02 -6.907707E-05 0.000000E+00 0.000000E+00
2.014000E+03 -9.632441E+02 -8.872588E-05 0.000000E+00 0.000000E+00
2.014000E+03 -9.568094E+02 -1.131228E-04 0.000000E+00 0.000000E+00
2.014000E+03 -9.493912E+02 -1.433826E-04 0.000000E+00 0.000000E+00
2.014000E+03 -9.409784E+02 -1.808721E-04 0.000000E+00 0.000000E+00
2.014000E+03 -9.316241E+02 -2.272681E-04 0.000000E+00 0.000000E+00
2.014000E+03 -9.214666E+02 -2.846308E-04 0.000000E+00 0.000000E+00
2.014000E+03 -9.107435E+02 -3.554997E-04 0.000000E+00 0.000000E+00
2.014000E+03 -8.997916E+02 -4.430207E-04 0.000000E+00 0.000000E+00
2.014000E+03 -8.890243E+02 -5.511127E-04 0.000000E+00 0.000000E+00
2.014000E+03 -8.788790E+02 -6.846858E-04 0.000000E+00 0.000000E+00
2.014000E+03 -8.697383E+02 -8.499157E-04 0.000000E+00 0.000000E+00
2.014000E+03 -8.618427E+02 -1.054578E-03 0.000000E+00 0.000000E+00
2.014000E+03 -8.552257E+02 -1.308442E-03 0.000000E+00 0.000000E+00
2.014000E+03 -8.497026E+02 -1.623722E-03 0.000000E+00 0.000000E+00
2.014000E+03 -8.449281E+02 -2.015608E-03 0.000000E+00 0.000000E+00
2.014000E+03 -8.405014E+02 -2.502900E-03 7.984771E-15 1.231837E-20
2.014000E+03 -8.360754E+02 -3.108806E-03 2.047271E-14 5.179835E-20
2.014000E+03 -8.314290E+02 -3.861980E-03 3.999973E-14 1.482189E-19
2.014000E+03 -8.264890E+02 -4.797854E-03 7.052888E-14 3.607344E-19
2.014000E+03 -8.213167E+02 -5.960375E-03 1.182532E-13 8.061323E-19
2.014000E+03 -8.162213E+02 -7.404511E-03 1.928502E-13 1.714094E-18
2.014000E+03 -8.114764E+02 -9.199187E-03 3.094421E-13 3.535215E-18
2.014000E+03 -8.073131E+02 -1.143102E-02 4.916580E-13 7.152106E-18
2.014000E+03 -8.038847E+02 -1.420897E-02 7.764189E-13 1.429184E-17
2.014000E+03 -8.012309E+02 -1.766994E-02 1.221413E-12 2.833171E-17
2.014000E+03 -7.992727E+02 -2.198558E-02 1.916775E-12 5.587321E-17
2.014000E+03 -7.978450E+02 -2.737049E-02 3.003330E-12 1.098164E-16
2.014000E+03 -7.967532E+02 -3.409242E-02 4.701098E-12 2.153648E-16
2.014000E+03 -7.958282E+02 -4.248508E-02 7.353814E-12 4.217534E-16
2.014000E+03 -7.949576E+02 -5.296443E-02 1.149847E-11 8.251545E-16
2.014000E+03 -7.940892E+02 -6.604931E-02 1.797393E-11 1.613410E-15
2.014000E+03 -7.932182E+02 -8.238746E-02 2.809055E-11 3.153391E-15
2.014000E+03 -7.923800E+02 -1.027886E-01 4.389503E-11 6.161592E-15
2.014000E+03 -7.917539E+02 -1.282698E-01 6.858391E-11 1.203725E-14
2.014000E+03 -7.913748E+02 -1.601061E-01 1.071525E-10 2.351341E-14
2.014000E+03 -7.910407E+02 -1.998847E-01 1.673950E-10 4.592668E-14
2.014000E+03 -7.907164E+02 -2.495875E-01 2.614831E-10 8.969759E-14
2.014000E+03 -7.904071E+02 -3.116917E-01 4.084172E-10 1.751725E-13
2.014000E+03 -7.901245E+02 -3.892943E-01 6.378521E-10 3.420752E-13
2.014001E+03 -7.898781E+02 -4.862672E-01 9.960639E-10 6.679550E-13
2.014001E+03 -7.896722E+02 -6.074517E-01 1.555256E-09 1.304191E-12
2.014001E+03 -7.895058E+02 -7.589005E-01 2.428074E-09 2.546251E-12
2.014001E+03 -7.893733E+02 -9.481797E-01 3.790258E-09 4.970792E-12
2.014001E+03 -7.892675E+02 -1.184747E+00 5.916011E-09 9.703179E-12
2.014002E+03 -7.891818E+02 -1.480424E+00 9.233223E-09 1.893944E-11
2.014002E+03 -7.891117E+02 -1.849987E+00 1.440972E-08 3.696462E-11
2.014003E+03 -7.890544E+02 -2.311908E+00 2.248780E-08 7.213944E-11
2.014004E+03 -7.890085E+02 -2.889275E+00 3.509387E-08 1.407751E-10
2.014005E+03 -7.889728E+02 -3.610952E+00 5.476437E-08 2.746879E-10
2.014006E+03 -7.889457E+02 -4.513017E+00 8.545166E-08 5.359233E-10
2.014007E+03 -7.889259E+02 -5.640569E+00 1.333082E-07 1.045435E-09
2.014009E+03 -7.889120E+02 -7.049985E+00 2.079006E-07 2.038915E-09
2.014011E+03 -7.889024E+02 -8.811733E+00 3.240853E-07 3.975396E-09
2.014014E+03 -7.888963E+02 -1.097161E+01 5.014275E-07 7.650335E-09
2.014017E+03 -7.888929E+02 -1.313148E+01 7.211174E-07 1.293773E-08
2.014019E+03 -7.888910E+02 -1.529135E+01 9.829084E-07 2.014793E-08
2.014022E+03 -7.888899E+02 -1.745121E+01 1.286416E-06 2.958898E-08
2.014025E+03 -7.888892E+02 -1.961107E+01 1.631263E-06 4.156663E-08
2.014028E+03 -7.888889E+02 -2.177093E+01 2.017078E-06 5.638443E-08
2.014030E+03 -7.888887E+02 -2.393079E+01 2.443494E-06 7.434369E-08
2.014033E+03 -7.888886E+02 -2.609065E+01 2.910149E-06 9.574354E-08
2.014036E+03 -7.888886E+02 -2.825051E+01 3.416687E-06 1.208809E-07
2.014039E+03 -7.888886E+02 -3.041037E+01 3.962755E-06 1.500507E-07
2.014041E+03 -7.888887E+02 -3.257023E+01 4.548002E-06 1.835456E-07
2.014044E+03 -7.888888E+02 -3.473009E+01 5.172082E-06 2.216562E-07
2.014047E+03 -7.888889E+02 -3.688995E+01 5.834651E-06 2.646710E-07
2.014049E+03 -7.888890E+02 -3.904981E+01 6.535368E-06 3.128766E-07
2.014052E+03 -7.888891E+02 -4.120967E+01 7.273895E-06 3.665572E-07
2.014055E+03 -7.888891E+02 -4.336953E+01 8.049896E-06 4.259954E-07
2.014058E+03 -7.888892E+02 -4.552939E+01 8.863038E-06 4.914714E-07
2.014060E+03 -7.888893E+02 -4.768925E+01 9.712988E-06 5.632636E-07
2.014063E+03 -7.888894E+02 -4.984912E+01 1.059942E-05 6.416485E-07
2.014066E+03 -7.888895E+02 -5.200898E+01 1.152200E-05 7.269002E-07
2.014069E+03 -7.888896E+02 -5.416884E+01 1.248041E-05 8.192913E-07
2.014071E+03 -7.888896E+02 -5.632870E+01 1.347433E-05 9.190923E-07
2.014074E+03 -7.888897E+02 -5.848856E+01 1.450344E-05 1.026572E-06
2.014077E+03 -7.888898E+02 -6.064843E+01 1.556741E-05 1.141996E-06
2.014080E+03 -7.888898E+02 -6.280829E+01 1.666593E-05 1.265630E-06
2.014082E+03 -7.888899E+02 -6.496815E+01 1.779869E-05 1.397737E-06
2.014085E+03 -7.888899E+02 -6.700473E+01 1.889657E-05 1.530051E-06
2.014088E+03 -7.825624E+02 -6.914727E+01 2.061379E-05 1.681916E-06
2.014090E+03 -7.764747E+02 -7.127314E+01 2.235553E-05 1.845484E-06
2.014093E+03 -7.704378E+02 -7.338249E+01 2.412354E-05 2.020940E-06
2.014096E+03 -7.644270E+02 -7.547537E+01 2.592281E-05 2.208489E-06
2.014099E+03 -7.584341E+02 -7.755185E+01 2.775905E-05 2.408373E-06
2.014101E+03 -7.524550E+02 -7.961196E+01 2.963712E-05 2.620856E-06
2.014104E+03 -7.464873E+02 -8.165573E+01 3.156072E-05 2.846222E-06
2.014107E+03 -7.405295E+02 -8.368319E+01 3.353257E-05 3.084766E-06
2.014110E+03 -7.345807E+02 -8.569437E+01 3.555463E-05 3.336794E-06
2.014112E+03 -7.286399E+02 -8.768927E+01 3.762831E-05 3.602618E-06
2.014115E+03 -7.227065E+02 -8.966794E+01 3.975460E-05 3.882550E-06
2.014118E+03 -7.167801E+02 -9.163037E+01 4.193418E-05 4.176908E-06
2.014121E+03 -7.108602E+02 -9.357660E+01 4.416755E-05 4.486007E-06
2.014123E+03 -7.049464E+02 -9.550664E+01 4.645503E-05 4.810163E-06
2.014126E+03 -6.990385E+02 -9.742050E+01 4.879682E-05 5.149692E-06
2.014129E+03 -6.931362E+02 -9.931821E+01 5.119307E-05 5.504909E-06
2.014131E+03 -6.872392E+02 -1.011998E+02 5.364384E-05 5.876124E-06
2.014134E+03 -6.813474E+02 -1.030652E+02 5.614914E-05 6.263649E-06
2.014137E+03 -6.754604E+02 -1.049145E+02 5.870897E-05 6.667791E-06
2.014140E+03 -6.695782E+02 -1.067477E+02 6.132331E-05 7.088858E-06
2.014142E+03 -6.637006E+02 -1.085648E+02 6.399303E-05 7.527155E-06
2.014145E+03 -6.578273E+02 -1.103659E+02 6.671926E-05 7.982991E-06
2.014148E+03 -6.519584E+02 -1.121508E+02 6.950022E-05 8.456665E-06
2.014151E+03 -6.460936E+02 -1.139197E+02 7.233588E-05 8.948479E-06
2.014153E+03 -6.402328E+02 -1.156726E+02 7.522617E-05 9.458726E-06
2.014156E+03 -6.343759E+02 -1.174094E+02 7.817105E-05 9.987703E-06
2.014159E+03 -6.285227E+02 -1.191302E+02 8.117047E-05 1.053570E-05
2.014162E+03 -6.226733E+02 -1.208350E+02 8.422436E-05 1.110301E-05
2.014162E+03 -6.225609E+02 -1.208677E+02 8.409003E-05 1.111387E-05
2.014164E+03 -6.289346E+02 -1.225896E+02 8.026528E-05 1.166386E-05
2.014167E+03 -6.342776E+02 -1.243262E+02 7.690951E-05 1.219991E-05
2.014170E+03 -6.394629E+02 -1.260769E+02 7.413335E-05 1.272539E-05
2.014173E+03 -6.445962E+02 -1.278417E+02 7.182263E-05 1.324297E-05
2.014175E+03 -6.497130E+02 -1.296206E+02 6.986816E-05 1.375472E-05
2.014178E+03 -6.548321E+02 -1.314134E+02 6.818278E-05 1.426225E-05
2.014181E+03 -6.599658E+02 -1.332203E+02 6.670106E-05 1.476676E-05
2.014184E+03 -6.651248E+02 -1.350413E+02 6.537483E-05 1.526922E-05
2.014186E+03 -6.703200E+02 -1.368765E+02 6.416873E-05 1.577038E-05
2.014189E+03 -6.755643E+02 -1.387261E+02 6.305666E-05 1.627086E-05
2.014192E+03 -6.808762E+02 -1.405903E+02 6.201922E-05 1.677118E-05
2.014194E+03 -6.862858E+02 -1.424692E+02 6.104205E-05 1.727178E-05
2.014197E+03 -6.918573E+02 -1.443634E+02 6.011492E-05 1.777302E-05
2.014200E+03 -6.978454E+02 -1.462740E+02 5.923360E-05 1.827528E-05
2.014203E+03 -7.036340E+02 -1.482005E+02 5.838697E-05 1.877888E-05
2.014205E+03 -7.087847E+02 -1.501410E+02 5.755473E-05 1.928398E-05
2.014208E+03 -7.141097E+02 -1.520961E+02 5.672554E-05 1.979072E-05
2.014211E+03 -7.201903E+02 -1.540679E+02 5.588310E-05 2.029918E-05
2.014214E+03 -7.248286E+02 -1.560524E+02 5.504751E-05 2.080945E-05
2.014216E+03 -7.294815E+02 -1.580496E+02 5.428054E-05 2.132187E-05
2.014219E+03 -7.341310E+02 -1.600595E+02 5.367382E-05 2.183704E-05
2.014222E+03 -7.387782E+02 -1.620822E+02 5.307727E-05 2.235511E-05
2.014225E+03 -7.434236E+02 -1.641176E+02 5.248816E-05 2.287628E-05
2.014227E+03 -7.480675E+02 -1.661657E+02 5.190393E-05 2.340067E-05
2.014230E+03 -7.527101E+02 -1.682265E+02 5.132228E-05 2.392843E-05
2.014233E+03 -7.573515E+02 -1.703000E+02 5.074120E-05 2.445966E-05
2.014236E+03 -7.619918E+02 -1.723862E+02 5.015887E-05 2.499451E-05
2.014238E+03 -7.666311E+02 -1.744851E+02 4.957368E-05 2.553307E-05
2.014241E+03 -7.712696E+02 -1.765968E+02 4.898412E-05 2.607546E-05
2.014244E+03 -7.759073E+02 -1.787211E+02 4.838882E-05 2.662177E-05
2.014247E+03 -7.805442E+02 -1.808581E+02 4.778649E-05 2.717210E-05
2.014247E+03 -7.806425E+02 -1.809035E+02 4.766491E-05 2.718376E-05
2.014249E+03 -7.815093E+02 -1.830431E+02 3.480099E-05 2.766214E-05
2.014252E+03 -7.814999E+02 -1.851827E+02 2.349965E-05 2.808003E-05
2.014255E+03 -7.813158E+02 -1.873219E+02 1.380362E-05 2.844785E-05
2.014258E+03 -7.810092E+02 -1.894602E+02 5.368929E-06 2.877338E-05
2.014260E+03 -7.806505E+02 -1.915975E+02 0.000000E+00 2.906812E-05
2.014263E+03 -7.802621E+02 -1.937337E+02 0.000000E+00 2.934899E-05
2.014266E+03 -7.798540E+02 -1.958688E+02 0.000000E+00 2.961769E-05
2.014268E+03 -7.794315E+02 -1.980028E+02 0.000000E+00 2.987550E-05
2.014271E+03 -7.790248E+02 -2.001357E+02 0.000000E+00 3.012444E-05
2.014274E+03 -7.785974E+02 -2.022673E+02 0.000000E+00 3.036589E-05
2.014277E+03 -7.781554E+02 -2.043978E+02 0.000000E+00 3.060085E-05
2.014279E+03 -7.777036E+02 -2.065270E+02 0.000000E+00 3.083010E-05
2.014282E+03 -7.772444E+02 -2.086550E+02 0.000000E+00 3.105426E-05
2.014285E+03 -7.767795E+02 -2.107817E+02 0.000000E+00 3.127385E-05
2.014288E+03 -7.763097E+02 -2.129072E+02 0.000000E+00 3.148930E-05
2.014290E+03 -7.758357E+02 -2.150313E+02 0.000000E+00 3.170102E-05
2.014293E+03 -7.753580E+02 -2.171541E+02 0.000000E+00 3.190937E-05
2.014296E+03 -7.748770E+02 -2.192756E+02 0.000000E+00 3.211466E-05
2.014299E+03 -7.743931E+02 -2.213958E+02 0.000000E+00 3.231720E-05
2.014301E+03 -7.739066E+02 -2.235146E+02 0.000000E+00 3.251726E-05
2.014304E+03 -7.734176E+02 -2.256321E+02 0.000000E+00 3.271510E-05
2.014307E+03 -7.729263E+02 -2.277483E+02 0.000000E+00 3.291097E-05
2.014310E+03 -7.724331E+02 -2.298631E+02 0.000000E+00 3.310509E-05
2.014312E+03 -7.719379E+02 -2.319765E+02 0.000000E+00 3.329768E-05
2.014315E+03 -7.714411E+02 -2.340886E+02 0.000000E+00 3.348895E-05
2.014318E+03 -7.709426E+02 -2.361993E+02 0.000000E+00 3.367911E-05
2.014320E+03 -7.704461E+02 -2.383087E+02 0.000000E+00 3.386871E-05
2.014323E+03 -7.699531E+02 -2.404167E+02 0.000000E+00 3.405867E-05
2.014326E+03 -7.694572E+02 -2.425234E+02 0.000000E+00 3.424946E-05
2.014329E+03 -7.689585E+02 -2.446287E+02 0.000000E+00 3.444142E-05
2.014329E+03 -7.689405E+02 -2.446719E+02 0.000000E+00 3.444535E-05
2.014332E+03 -7.674397E+02 -2.467731E+02 0.000000E+00 3.459257E-05
2.014334E+03 -7.648053E+02 -2.488670E+02 0.000000E+00 3.471426E-05
2.014337E+03 -7.619389E+02 -2.509531E+02 0.000000E+00 3.482042E-05
2.014340E+03 -7.589824E+02 -2.530310E+02 0.000000E+00 3.491658E-05
2.014342E+03 -7.559876E+02 -2.551008E+02 0.000000E+00 3.500620E-05
2.014345E+03 -7.529943E+02 -2.571624E+02 0.000000E+00 3.509192E-05
2.014348E+03 -7.498644E+02 -2.592154E+02 0.000000E+00 3.517617E-05
2.014351E+03 -7.465973E+02 -2.612595E+02 0.000000E+00 3.525689E-05
2.014353E+03 -7.435409E+02 -2.632952E+02 0.000000E+00 3.533404E-05
2.014356E+03 -7.404881E+02 -2.653225E+02 0.000000E+00 3.540822E-05
2.014359E+03 -7.374290E+02 -2.673415E+02 0.000000E+00 3.548014E-05
2.014362E+03 -7.343628E+02 -2.693521E+02 0.000000E+00 3.555050E-05
2.014364E+03 -7.312898E+02 -2.713543E+02 0.000000E+00 3.561990E-05
2.014367E+03 -7.282106E+02 -2.733480E+02 0.000000E+00 3.568893E-05
2.014370E+03 -7.251259E+02 -2.753333E+02 0.000000E+00 3.575808E-05
2.014373E+03 -7.220361E+02 -2.773101E+02 0.000000E+00 3.582783E-05
2.014375E+03 -7.189417E+02 -2.792785E+02 0.000000E+00 3.589861E-05
2.014378E+03 -7.158429E+02 -2.812383E+02 0.000000E+00 3.597084E-05
2.014381E+03 -7.127402E+02 -2.831897E+02 0.000000E+00 3.604491E-05
2.014384E+03 -7.096335E+02 -2.851326E+02 0.000000E+00 3.612118E-05
2.014386E+03 -7.065233E+02 -2.870669E+02 0.000000E+00 3.620001E-05
2.014389E+03 -7.034095E+02 -2.889928E+02 0.000000E+00 3.628175E-05
2.014392E+03 -7.002924E+02 -2.909101E+02 0.000000E+00 3.636673E-05
2.014394E+03 -6.971719E+02 -2.928188E+02 0.000000E+00 3.645531E-05
2.014397E+03 -6.940481E+02 -2.947190E+02 0.000000E+00 3.654783E-05
2.014400E+03 -6.909211E+02 -2.966106E+02 0.000000E+00 3.664462E-05
2.014403E+03 -6.877908E+02 -2.984937E+02 0.000000E+00 3.674605E-05
2.014405E+03 -6.846573E+02 -3.003682E+02 0.000000E+00 3.685250E-05
2.014408E+03 -6.815205E+02 -3.022341E+02 0.000000E+00 3.696436E-05
2.014411E+03 -6.783804E+02 -3.040914E+02 0.000000E+00 3.708205E-05
2.014414E+03 -6.752403E+02 -3.059401E+02 0.000000E+00 3.720581E-05
2.014414E+03 -6.751622E+02 -3.059794E+02 0.000000E+00 3.720843E-05
2.014416E+03 -6.774119E+02 -3.078340E+02 0.000000E+00 3.739891E-05
2.014419E+03 -6.806035E+02 -3.096974E+02 0.000000E+00 3.762591E-05
2.014422E+03 -6.840383E+02 -3.115702E+02 0.000000E+00 3.787781E-05
2.014425E+03 -6.875735E+02 -3.134527E+02 0.000000E+00 3.814943E-05
2.014427E+03 -6.911618E+02 -3.153450E+02 0.000000E+00 3.843823E-05
2.014430E+03 -6.947847E+02 -3.172472E+02 0.000000E+00 3.874293E-05
2.014433E+03 -6.984405E+02 -3.191594E+02 0.000000E+00 3.906308E-05
2.014436E+03 -7.021301E+02 -3.210817E+02 0.000000E+00 3.939889E-05
2.014438E+03 -7.057454E+02 -3.230140E+02 0.000000E+00 3.975075E-05
2.014441E+03 -7.093105E+02 -3.249560E+02 0.000000E+00 4.011821E-05
2.014444E+03 -7.129460E+02 -3.269079E+02 0.000000E+00 4.049715E-05
2.014447E+03 -7.166201E+02 -3.288699E+02 0.000000E+00 4.088658E-05
2.014449E+03 -7.203047E+02 -3.308420E+02 0.000000E+00 4.128618E-05
2.014452E+03 -7.239950E+02 -3.328242E+02 0.000000E+00 4.169584E-05
2.014455E+03 -7.276893E+02 -3.348165E+02 0.000000E+00 4.211557E-05
2.014458E+03 -7.313866E+02 -3.368189E+02 0.000000E+00 4.254541E-05
2.014460E+03 -7.350862E+02 -3.388315E+02 0.000000E+00 4.298549E-05
2.014463E+03 -7.387878E+02 -3.408542E+02 0.000000E+00 4.343593E-05
2.014466E+03 -7.424910E+02 -3.428870E+02 0.000000E+00 4.389689E-05
2.014468E+03 -7.461954E+02 -3.449300E+02 0.000000E+00 4.436857E-05
2.014471E+03 -7.499010E+02 -3.469831E+02 0.000000E+00 4.485118E-05
2.014474E+03 -7.536074E+02 -3.490463E+02 0.000000E+00 4.534494E-05
2.014477E+03 -7.573146E+02 -3.511198E+02 0.000000E+00 4.585010E-05
2.014479E+03 -7.610225E+02 -3.532033E+02 0.000000E+00 4.636692E-05
2.014482E+03 -7.647309E+02 -3.552970E+02 0.000000E+00 4.689568E-05
2.014485E+03 -7.684398E+02 -3.574009E+02 0.000000E+00 4.743668E-05
2.014488E+03 -7.721491E+02 -3.595149E+02 0.000000E+00 4.799023E-05
2.014490E+03 -7.758588E+02 -3.616391E+02 0.000000E+00 4.855665E-05
2.014493E+03 -7.795688E+02 -3.637735E+02 0.000000E+00 4.913631E-05
2.014496E+03 -7.832791E+02 -3.659180E+02 0.000000E+00 4.972954E-05
2.014496E+03 -7.833540E+02 -3.659620E+02 0.000000E+00 4.974171E-05
2.014499E+03 -7.833772E+02 -3.681068E+02 0.000000E+00 5.040197E-05
2.014501E+03 -7.841375E+02 -3.702537E+02 0.000000E+00 5.109494E-05
2.014504E+03 -7.851013E+02 -3.724031E+02 0.000000E+00 5.180942E-05
2.014507E+03 -7.861655E+02 -3.745556E+02 0.000000E+00 5.254006E-05
2.014510E+03 -7.872708E+02 -3.767110E+02 0.000000E+00 5.328523E-05
2.014512E+03 -7.883946E+02 -3.788695E+02 0.000000E+00 5.404453E-05
2.014515E+03 -7.895315E+02 -3.810311E+02 0.000000E+00 5.481781E-05
2.014518E+03 -7.906787E+02 -3.831959E+02 0.000000E+00 5.560505E-05
2.014521E+03 -7.918343E+02 -3.853638E+02 0.000000E+00 5.640626E-05
2.014523E+03 -7.929968E+02 -3.875349E+02 0.000000E+00 5.722156E-05
2.014526E+03 -7.941649E+02 -3.897092E+02 0.000000E+00 5.805107E-05
2.014529E+03 -7.953378E+02 -3.918867E+02 0.000000E+00 5.889499E-05
2.014531E+03 -7.965145E+02 -3.940675E+02 0.000000E+00 5.975352E-05
2.014534E+03 -7.976944E+02 -3.962514E+02 0.000000E+00 6.062690E-05
2.014537E+03 -7.988771E+02 -3.984386E+02 0.000000E+00 6.151539E-05
2.014540E+03 -8.000621E+02 -4.006291E+02 0.000000E+00 6.241927E-05
2.014542E+03 -8.012491E+02 -4.028228E+02 0.000000E+00 6.333884E-05
2.014545E+03 -8.024379E+02 -4.050197E+02 0.000000E+00 6.427441E-05
2.014548E+03 -8.036282E+02 -4.072200E+02 0.000000E+00 6.522630E-05
2.014551E+03 -8.048198E+02 -4.094234E+02 0.000000E+00 6.619486E-05
2.014553E+03 -8.060127E+02 -4.116302E+02 0.000000E+00 6.718042E-05
2.014556E+03 -8.072067E+02 -4.138402E+02 0.000000E+00 6.818337E-05
2.014559E+03 -8.084017E+02 -4.160535E+02 0.000000E+00 6.920408E-05
2.014562E+03 -8.095978E+02 -4.182700E+02 0.000000E+00 7.024294E-05
2.014564E+03 -8.107947E+02 -4.204899E+02 0.000000E+00 7.130035E-05
2.014567E+03 -8.119926E+02 -4.227130E+02 0.000000E+00 7.237674E-05
2.014570E+03 -8.131913E+02 -4.249394E+02 0.000000E+00 7.347254E-05
2.014573E+03 -8.143909E+02 -4.271691E+02 0.000000E+00 7.458822E-05
2.014575E+03 -8.155914E+02 -4.294020E+02 0.000000E+00 7.572425E-05
2.014578E+03 -8.167928E+02 -4.316383E+02 0.000000E+00 7.688113E-05
2.014581E+03 -8.179952E+02 -4.338778E+02 0.000000E+00 7.805938E-05
2.014581E+03 -8.180193E+02 -4.339254E+02 0.000000E+00 7.808436E-05
2.014584E+03 -8.190208E+02 -4.361677E+02 0.000000E+00 7.954456E-05
2.014586E+03 -8.214157E+02 -4.384166E+02 0.000000E+00 8.117375E-05
2.014589E+03 -8.241885E+02 -4.406732E+02 0.000000E+00 8.293554E-05
2.014592E+03 -8.271467E+02 -4.429378E+02 0.000000E+00 8.481529E-05
2.014595E+03 -8.302166E+02 -4.452108E+02 0.000000E+00 8.680615E-05
2.014597E+03 -8.333615E+02 -4.474924E+02 0.000000E+00 8.890465E-05
2.014600E+03 -8.365602E+02 -4.497828E+02 0.000000E+00 9.110894E-05
2.014603E+03 -8.397991E+02 -4.520820E+02 0.000000E+00 9.341804E-05
2.014605E+03 -8.430688E+02 -4.543902E+02 0.000000E+00 9.583147E-05
2.014608E+03 -8.463625E+02 -4.567074E+02 0.000000E+00 9.834905E-05
2.014611E+03 -8.496753E+02 -4.590337E+02 0.000000E+00 1.009708E-04
2.014614E+03 -8.530033E+02 -4.613691E+02 0.000000E+00 1.036969E-04
2.014616E+03 -8.563437E+02 -4.637136E+02 0.000000E+00 1.065277E-04
2.014619E+03 -8.596941E+02 -4.660674E+02 0.000000E+00 1.094634E-04
2.014622E+03 -8.630530E+02 -4.684303E+02 0.000000E+00 1.125044E-04
2.014625E+03 -8.664189E+02 -4.708024E+02 0.000000E+00 1.156510E-04
2.014627E+03 -8.697907E+02 -4.731837E+02 0.000000E+00 1.189038E-04
2.014630E+03 -8.731675E+02 -4.755744E+02 0.000000E+00 1.222631E-04
2.014633E+03 -8.765488E+02 -4.779742E+02 0.000000E+00 1.257294E-04
2.014636E+03 -8.799338E+02 -4.803833E+02 0.000000E+00 1.293030E-04
2.014638E+03 -8.833222E+02 -4.828017E+02 0.000000E+00 1.329844E-04
2.014641E+03 -8.867136E+02 -4.852294E+02 0.000000E+00 1.367741E-04
2.014644E+03 -8.901076E+02 -4.876664E+02 0.000000E+00 1.406724E-04
2.014647E+03 -8.935041E+02 -4.901127E+02 0.000000E+00 1.446797E-04
2.014649E+03 -8.969027E+02 -4.925683E+02 0.000000E+00 1.487965E-04
2.014652E+03 -9.003033E+02 -4.950332E+02 0.000000E+00 1.530232E-04
2.014655E+03 -9.037058E+02 -4.975074E+02 0.000000E+00 1.573602E-04
2.014657E+03 -9.071099E+02 -4.999909E+02 0.000000E+00 1.618078E-04
2.014660E+03 -9.105157E+02 -5.024838E+02 0.000000E+00 1.663666E-04
2.014663E+03 -9.139228E+02 -5.049860E+02 0.000000E+00 1.710370E-04
2.014666E+03 -9.173314E+02 -5.074975E+02 0.000000E+00 1.758192E-04
2.014666E+03 -9.174034E+02 -5.075508E+02 0.000000E+00 1.759206E-04
2.014668E+03 -9.196431E+02 -5.100687E+02 1.017563E-04 1.814576E-04
2.014671E+03 -9.226864E+02 -5.125948E+02 1.783135E-04 1.875223E-04
2.014674E+03 -9.259678E+02 -5.151300E+02 2.357989E-04 1.940033E-04
2.014677E+03 -9.293633E+02 -5.176745E+02 2.836437E-04 2.008469E-04
2.014679E+03 -9.328266E+02 -5.202284E+02 3.258376E-04 2.080224E-04
2.014682E+03 -9.363352E+02 -5.227919E+02 3.643492E-04 2.155106E-04
2.014685E+03 -9.398766E+02 -5.253652E+02 4.002803E-04 2.232987E-04
2.014688E+03 -9.434429E+02 -5.279482E+02 4.343108E-04 2.313773E-04
2.014690E+03 -9.470287E+02 -5.305410E+02 4.668908E-04 2.397398E-04
2.014693E+03 -9.506300E+02 -5.331437E+02 4.983351E-04 2.483813E-04
2.014696E+03 -9.542442E+02 -5.357563E+02 5.288711E-04 2.572981E-04
2.014699E+03 -9.578689E+02 -5.383788E+02 5.586680E-04 2.664876E-04
2.014701E+03 -9.615025E+02 -5.410112E+02 5.878531E-04 2.759480E-04
2.014704E+03 -9.651437E+02 -5.436536E+02 6.165236E-04 2.856782E-04
2.014707E+03 -9.687554E+02 -5.463059E+02 6.470063E-04 2.956607E-04
2.014710E+03 -9.721521E+02 -5.489676E+02 6.827789E-04 3.058976E-04
2.014712E+03 -9.754858E+02 -5.516383E+02 7.184668E-04 3.164116E-04
2.014715E+03 -9.789339E+02 -5.543185E+02 7.535355E-04 3.272064E-04
2.014718E+03 -9.824260E+02 -5.570082E+02 7.880091E-04 3.382825E-04
2.014721E+03 -9.859455E+02 -5.597076E+02 8.219769E-04 3.496400E-04
2.014723E+03 -9.894849E+02 -5.624166E+02 8.555164E-04 3.612788E-04
2.014726E+03 -9.930398E+02 -5.651354E+02 8.886853E-04 3.731994E-04
2.014729E+03 -9.966073E+02 -5.678640E+02 9.215251E-04 3.854022E-04
2.014731E+03 -1.000186E+03 -5.706024E+02 9.614907E-04 3.979080E-04
2.014734E+03 -1.003773E+03 -5.733505E+02 1.003417E-03 4.107239E-04
2.014737E+03 -1.007369E+03 -5.761086E+02 1.045266E-03 4.238511E-04
2.014740E+03 -1.010972E+03 -5.788764E+02 1.087049E-03 4.372915E-04
2.014742E+03 -1.014581E+03 -5.816542E+02 1.128769E-03 4.510469E-04
2.014745E+03 -1.018197E+03 -5.844419E+02 1.170430E-03 4.651190E-04
2.014748E+03 -1.021817E+03 -5.872395E+02 1.212031E-03 4.795099E-04
2.014748E+03 -1.021889E+03 -5.872970E+02 1.210239E-03 4.798051E-04
2.014751E+03 -1.024311E+03 -5.901014E+02 1.155983E-03 4.939607E-04
2.014753E+03 -1.026286E+03 -5.929112E+02 1.132691E-03 5.080727E-04
2.014756E+03 -1.028143E+03 -5.957261E+02 1.126346E-03 5.222376E-04
2.014759E+03 -1.029949E+03 -5.985459E+02 1.129474E-03 5.365097E-04
2.014762E+03 -1.031726E+03 -6.013707E+02 1.138461E-03 5.509220E-04
2.014764E+03 -1.033486E+03 -6.042002E+02 1.151385E-03 5.654972E-04
2.014767E+03 -1.035233E+03 -6.070345E+02 1.167125E-03 5.802519E-04
2.014770E+03 -1.036972E+03 -6.098736E+02 1.184980E-03 5.951985E-04
2.014773E+03 -1.038705E+03 -6.127174E+02 1.204479E-03 6.103477E-04
2.014775E+03 -1.040433E+03 -6.155659E+02 1.225287E-03 6.257078E-04
2.014778E+03 -1.042158E+03 -6.184192E+02 1.247160E-03 6.412860E-04
2.014781E+03 -1.043880E+03 -6.212772E+02 1.269909E-03 6.570888E-04
2.014784E+03 -1.045600E+03 -6.241399E+02 1.293386E-03 6.731219E-04
2.014786E+03 -1.047318E+03 -6.270073E+02 1.317472E-03 6.893905E-04
2.014789E+03 -1.049035E+03 -6.298794E+02 1.342072E-03 7.058991E-04
2.014792E+03 -1.050752E+03 -6.327562E+02 1.367103E-03 7.226520E-04
2.014794E+03 -1.052467E+03 -6.356377E+02 1.392500E-03 7.396534E-04
2.014797E+03 -1.054183E+03 -6.385239E+02 1.418205E-03 7.569069E-04
2.014800E+03 -1.055898E+03 -6.414148E+02 1.444170E-03 7.744162E-04
2.014803E+03 -1.057613E+03 -6.443104E+02 1.470354E-03 7.921848E-04
2.014805E+03 -1.059327E+03 -6.472107E+02 1.496722E-03 8.102159E-04
2.014808E+03 -1.061042E+03 -6.501156E+02 1.523241E-03 8.285127E-04
2.014811E+03 -1.062758E+03 -6.530253E+02 1.549886E-03 8.470785E-04
2.014814E+03 -1.064473E+03 -6.559397E+02 1.576634E-03 8.659160E-04
2.014816E+03 -1.066189E+03 -6.588587E+02 1.603462E-03 8.850284E-04
2.014819E+03 -1.067905E+03 -6.617825E+02 1.630354E-03 9.044185E-04
2.014822E+03 -1.069468E+03 -6.647105E+02 1.659859E-03 9.240321E-04
2.014825E+03 -1.070994E+03 -6.676428E+02 1.690498E-03 9.439133E-04
2.014827E+03 -1.072501E+03 -6.705791E+02 1.721089E-03 9.640730E-04
2.014830E+03 -1.074045E+03 -6.735197E+02 1.751467E-03 9.845174E-04
2.014833E+03 -1.075628E+03 -6.764646E+02 1.781695E-03 1.005251E-03
2.014833E+03 -1.075648E+03 -6.765271E+02 1.778467E-03 1.005691E-03
2.014836E+03 -1.078535E+03 -6.794800E+02 1.573151E-03 1.025313E-03
2.014838E+03 -1.080380E+03 -6.824379E+02 1.430563E-03 1.044227E-03
2.014841E+03 -1.081977E+03 -6.854002E+02 1.327939E-03 1.062664E-03
2.014844E+03 -1.083462E+03 -6.883666E+02 1.250180E-03 1.080763E-03
2.014847E+03 -1.084884E+03 -6.913368E+02 1.188831E-03 1.098613E-03
2.014849E+03 -1.086264E+03 -6.943108E+02 1.138954E-03 1.116277E-03
2.014852E+03 -1.087616E+03 -6.972886E+02 1.097504E-03 1.133799E-03
2.014855E+03 -1.088948E+03 -7.002699E+02 1.062500E-03 1.151214E-03
2.014858E+03 -1.090263E+03 -7.032549E+02 1.032596E-03 1.168549E-03
2.014860E+03 -1.091565E+03 -7.062435E+02 1.006831E-03 1.185824E-03
2.014863E+03 -1.092857E+03 -7.092355E+02 9.844974E-04 1.203059E-03
2.014866E+03 -1.094140E+03 -7.122311E+02 9.650559E-04 1.220268E-03
2.014868E+03 -1.095416E+03 -7.152302E+02 9.480838E-04 1.237463E-03
2.014871E+03 -1.096685E+03 -7.182328E+02 9.332426E-04 1.254656E-03
2.014874E+03 -1.097950E+03 -7.212388E+02 9.202558E-04 1.271858E-03
2.014877E+03 -1.099209E+03 -7.242483E+02 9.088938E-04 1.289074E-03
2.014879E+03 -1.100465E+03 -7.272612E+02 8.989639E-04 1.306315E-03
2.014882E+03 -1.101717E+03 -7.302775E+02 8.903021E-04 1.323586E-03
2.014885E+03 -1.102966E+03 -7.332973E+02 8.827682E-04 1.340894E-03
2.014888E+03 -1.104212E+03 -7.363204E+02 8.762409E-04 1.358244E-03
2.014890E+03 -1.105456E+03 -7.393470E+02 8.706153E-04 1.375640E-03
2.014893E+03 -1.106697E+03 -7.423770E+02 8.657997E-04 1.393088E-03
2.014896E+03 -1.107937E+03 -7.454104E+02 8.617137E-04 1.410592E-03
2.014899E+03 -1.109175E+03 -7.484471E+02 8.582868E-04 1.428155E-03
2.014901E+03 -1.110412E+03 -7.514873E+02 8.554568E-04 1.445780E-03
2.014904E+03 -1.111647E+03 -7.545308E+02 8.531685E-04 1.463472E-03
2.014907E+03 -1.112881E+03 -7.575777E+02 8.513732E-04 1.481232E-03
2.014910E+03 -1.114113E+03 -7.606280E+02 8.500274E-04 1.499065E-03
2.014912E+03 -1.115345E+03 -7.636816E+02 8.490924E-04 1.516971E-03
2.014915E+03 -1.116576E+03 -7.667386E+02 8.488398E-04 1.534956E-03
2.014915E+03 -1.116601E+03 -7.668014E+02 8.470360E-04 1.535324E-03
2.014918E+03 -1.114672E+03 -7.698532E+02 7.859843E-04 1.552836E-03
2.014921E+03 -1.112303E+03 -7.728986E+02 7.374417E-04 1.570014E-03
2.014923E+03 -1.109834E+03 -7.759371E+02 6.994977E-04 1.586941E-03
2.014926E+03 -1.107320E+03 -7.789688E+02 6.690092E-04 1.603671E-03
2.014929E+03 -1.104781E+03 -7.819935E+02 6.438244E-04 1.620239E-03
2.014931E+03 -1.102225E+03 -7.850113E+02 6.225335E-04 1.636670E-03
2.014934E+03 -1.099658E+03 -7.880219E+02 6.042044E-04 1.652986E-03
2.014937E+03 -1.097081E+03 -7.910256E+02 5.882027E-04 1.669202E-03
2.014940E+03 -1.094498E+03 -7.940222E+02 5.740823E-04 1.685329E-03
2.014942E+03 -1.091909E+03 -7.970116E+02 5.615186E-04 1.701378E-03
2.014945E+03 -1.089316E+03 -7.999940E+02 5.502676E-04 1.717358E-03
2.014948E+03 -1.086718E+03 -8.029693E+02 5.401410E-04 1.733276E-03
2.014951E+03 -1.084118E+03 -8.059375E+02 5.309891E-04 1.749138E-03
2.014953E+03 -1.081514E+03 -8.088985E+02 5.226910E-04 1.764952E-03
2.014956E+03 -1.078908E+03 -8.118524E+02 5.151467E-04 1.780721E-03
2.014959E+03 -1.076300E+03 -8.147991E+02 5.082723E-04 1.796451E-03
2.014962E+03 -1.073689E+03 -8.177387E+02 5.019967E-04 1.812147E-03
2.014964E+03 -1.071077E+03 -8.206712E+02 4.962586E-04 1.827812E-03
2.014967E+03 -1.068463E+03 -8.235965E+02 4.910051E-04 1.843449E-03
2.014970E+03 -1.065848E+03 -8.265146E+02 4.861900E-04 1.859063E-03
2.014973E+03 -1.063232E+03 -8.294256E+02 4.817728E-04 1.874656E-03
2.014975E+03 -1.060614E+03 -8.323294E+02 4.777175E-04 1.890232E-03
2.014978E+03 -1.057996E+03 -8.352260E+02 4.739926E-04 1.905793E-03
2.014981E+03 -1.055376E+03 -8.381155E+02 4.705698E-04 1.921342E-03
2.014984E+03 -1.052756E+03 -8.409978E+02 4.674240E-04 1.936881E-03
2.014986E+03 -1.050134E+03 -8.438729E+02 4.645327E-04 1.952412E-03
2.014989E+03 -1.047512E+03 -8.467408E+02 4.618758E-04 1.967938E-03
2.014992E+03 -1.044889E+03 -8.496015E+02 4.594350E-04 1.983459E-03
2.014994E+03 -1.042266E+03 -8.524551E+02 4.571941E-04 1.998980E-03
2.014997E+03 -1.039642E+03 -8.553015E+02 4.551383E-04 2.014500E-03
2.015000E+03 -1.037018E+03 -8.581407E+02 4.532543E-04 2.030022E-03
2.015000E+03 -1.036962E+03 -8.582010E+02 4.522754E-04 2.030350E-03
2.015003E+03 -1.036165E+03 -8.610378E+02 3.717754E-04 2.045233E-03
2.015005E+03 -1.034891E+03 -8.638712E+02 3.076762E-04 2.059653E-03
2.015008E+03 -1.033509E+03 -8.667008E+02 2.563548E-04 2.073714E-03
2.015011E+03 -1.032078E+03 -8.695265E+02 2.139712E-04 2.087482E-03
2.015014E+03 -1.030621E+03 -8.723482E+02 1.779121E-04 2.101006E-03
2.015016E+03 -1.029146E+03 -8.751658E+02 1.464739E-04 2.114316E-03
2.015019E+03 -1.027659E+03 -8.779794E+02 1.185349E-04 2.127437E-03
2.015022E+03 -1.026164E+03 -8.807889E+02 9.333511E-05 2.140392E-03
2.015025E+03 -1.024663E+03 -8.835943E+02 7.034193E-05 2.153195E-03