TITLE = ""
VARIABLES ="simulation time, " "Aqueous Volumetric Flux Rate (1)" "Aqueous Volumetric Flux Integral (1)" "Conservation Component Species Flux (total_cr6) Rate (2)" "Conservation Component Species Flux (total_cr6) Integral (2)"
ZONE T="Reference Node Variables" F=POINT
2.014000E+03 8.615849E+03 2.358891E-05 0.000000E+00 0.000000E+00
2.014000E+03 8.615849E+03 5.307504E-05 1.300632E-10 4.575637E-19
2.014000E+03 8.615849E+03 8.993271E-05 2.926422E-10 1.744462E-18
2.014000E+03 8.615849E+03 1.360048E-04 4.958660E-10 4.470183E-18
2.014000E+03 8.615849E+03 1.935949E-04 7.498956E-10 9.622802E-18
2.014000E+03 8.615849E+03 2.655825E-04 1.067433E-09 1.879087E-17
2.014000E+03 8.615849E+03 3.555671E-04 1.464354E-09 3.451235E-17
2.014000E+03 8.615849E+03 4.680478E-04 1.960506E-09 6.082262E-17
2.014000E+03 8.615849E+03 6.086486E-04 2.580695E-09 1.041142E-16
2.014000E+03 8.615849E+03 7.843997E-04 3.355933E-09 1.744847E-16
2.014000E+03 8.615849E+03 1.004088E-03 4.324979E-09 2.878477E-16
2.014000E+03 8.615849E+03 1.278700E-03 5.536287E-09 4.692387E-16
2.014000E+03 8.615849E+03 1.621963E-03 7.050421E-09 7.579889E-16
2.014000E+03 8.615849E+03 2.051043E-03 8.943090E-09 1.215820E-15
2.014000E+03 8.615849E+03 2.587393E-03 1.130893E-08 1.939503E-15
2.014000E+03 8.615849E+03 3.257830E-03 1.426622E-08 3.080662E-15
2.014000E+03 8.615849E+03 4.095876E-03 1.796284E-08 4.876727E-15
2.014000E+03 8.615849E+03 5.143434E-03 2.258361E-08 7.699335E-15
2.014000E+03 8.615849E+03 6.452882E-03 2.835957E-08 1.212998E-14
2.014000E+03 8.615849E+03 8.089691E-03 3.557952E-08 1.907826E-14
2.014000E+03 8.615849E+03 1.013570E-02 4.460447E-08 2.996669E-14
2.014000E+03 8.615849E+03 1.269322E-02 5.588564E-08 4.701956E-14
2.014000E+03 8.615849E+03 1.589011E-02 6.998710E-08 7.371426E-14
2.014000E+03 8.615849E+03 1.988623E-02 8.761392E-08 1.154867E-13
2.014000E+03 8.615849E+03 2.488137E-02 1.096474E-07 1.808337E-13
2.014000E+03 8.615849E+03 3.112531E-02 1.372299E-07 2.830645E-13
2.014000E+03 8.615850E+03 3.893022E-02 1.717206E-07 4.429694E-13
2.014000E+03 8.615850E+03 4.868637E-02 2.148537E-07 6.930546E-13
2.014000E+03 8.615850E+03 6.088155E-02 2.688012E-07 1.084149E-12
2.014000E+03 8.615851E+03 7.612553E-02 3.362839E-07 1.695739E-12
2.014000E+03 8.615851E+03 9.518050E-02 4.207129E-07 2.652149E-12
2.014000E+03 8.615852E+03 1.189992E-01 5.263673E-07 4.147862E-12
2.014000E+03 8.615853E+03 1.487726E-01 6.586197E-07 6.487206E-12
2.014000E+03 8.615854E+03 1.859894E-01 8.242235E-07 1.014654E-11
2.014000E+03 8.615855E+03 2.325103E-01 1.031678E-06 1.587180E-11
2.014000E+03 8.615856E+03 2.906615E-01 1.291700E-06 2.483172E-11
2.014000E+03 8.615858E+03 3.633505E-01 1.617825E-06 3.885856E-11
2.014000E+03 8.615860E+03 4.542118E-01 2.027196E-06 6.082725E-11
2.014000E+03 8.615862E+03 5.677885E-01 2.541585E-06 9.525322E-11
2.014000E+03 8.615864E+03 7.097593E-01 3.188743E-06 1.492373E-10
2.014000E+03 8.615867E+03 8.872229E-01 4.004197E-06 2.339629E-10
2.014000E+03 8.615870E+03 1.109052E+00 5.033645E-06 3.670766E-10
2.014000E+03 8.615873E+03 1.386340E+00 6.336218E-06 5.764851E-10
2.014000E+03 8.615876E+03 1.732948E+00 7.988913E-06 9.064416E-10
2.014000E+03 8.615878E+03 2.166210E+00 1.009272E-05 1.427348E-09
2.014000E+03 8.615880E+03 2.707786E+00 1.278121E-05 2.251633E-09
2.014000E+03 8.615881E+03 3.384757E+00 1.623225E-05 3.559635E-09
2.014000E+03 8.615880E+03 4.230971E+00 2.068489E-05 5.642066E-09
2.014001E+03 8.615878E+03 5.288738E+00 2.646287E-05 8.970213E-09
2.014001E+03 8.615874E+03 6.610946E+00 3.400786E-05 1.431278E-08
2.014001E+03 8.615869E+03 8.263705E+00 4.392607E-05 2.293173E-08
2.014001E+03 8.615862E+03 1.032965E+01 5.705331E-05 3.691242E-08
2.014001E+03 8.615854E+03 1.291208E+01 7.454442E-05 5.972302E-08
2.014002E+03 8.615844E+03 1.614012E+01 9.799421E-05 9.716506E-08
2.014002E+03 8.615832E+03 2.017516E+01 1.295966E-04 1.589897E-07
2.014003E+03 8.615819E+03 2.521895E+01 1.723478E-04 2.616414E-07
2.014004E+03 8.615805E+03 3.152368E+01 2.302935E-04 4.328912E-07
2.014005E+03 8.615791E+03 3.940457E+01 3.088148E-04 7.196019E-07
2.014006E+03 8.615775E+03 4.925568E+01 4.149342E-04 1.200602E-06
2.014007E+03 8.615761E+03 6.156954E+01 5.576116E-04 2.007745E-06
2.014009E+03 8.615746E+03 7.696183E+01 7.479974E-04 3.359864E-06
2.014011E+03 8.615733E+03 9.620218E+01 9.996164E-04 5.616657E-06
2.014014E+03 8.615721E+03 1.197907E+02 1.325469E-03 9.282819E-06
2.014017E+03 8.615713E+03 1.433793E+02 1.702196E-03 1.398921E-05
2.014019E+03 8.615706E+03 1.669678E+02 2.097698E-03 1.978718E-05
2.014022E+03 8.615701E+03 1.905563E+02 2.505783E-03 2.671111E-05
2.014025E+03 8.615696E+03 2.141448E+02 2.922130E-03 3.478360E-05
2.014028E+03 8.615693E+03 2.377333E+02 3.343718E-03 4.401893E-05
2.014030E+03 8.615690E+03 2.613217E+02 3.768437E-03 5.442567E-05
2.014033E+03 8.615688E+03 2.849102E+02 4.194812E-03 6.600828E-05
2.014036E+03 8.615686E+03 3.084987E+02 4.621813E-03 7.876849E-05
2.014039E+03 8.615684E+03 3.320871E+02 5.048720E-03 9.270599E-05
2.014041E+03 8.615682E+03 3.556756E+02 5.475034E-03 1.078191E-04
2.014044E+03 8.615681E+03 3.792640E+02 5.900405E-03 1.241053E-04
2.014047E+03 8.615680E+03 4.028525E+02 6.324592E-03 1.415612E-04
2.014049E+03 8.615679E+03 4.264409E+02 6.747430E-03 1.601832E-04
2.014052E+03 8.615678E+03 4.500294E+02 7.168804E-03 1.799672E-04
2.014055E+03 8.615677E+03 4.736178E+02 7.588638E-03 2.009090E-04
2.014058E+03 8.615676E+03 4.972062E+02 8.006881E-03 2.230041E-04
2.014060E+03 8.615676E+03 5.207947E+02 8.423499E-03 2.462482E-04
2.014063E+03 8.615675E+03 5.443831E+02 8.838473E-03 2.706366E-04
2.014066E+03 8.615674E+03 5.679715E+02 9.251790E-03 2.961649E-04
2.014069E+03 8.615674E+03 5.915600E+02 9.663444E-03 3.228284E-04
2.014071E+03 8.615673E+03 6.151484E+02 1.007344E-02 3.506226E-04
2.014074E+03 8.615673E+03 6.387368E+02 1.048176E-02 3.795430E-04
2.014077E+03 8.615673E+03 6.623252E+02 1.088844E-02 4.095848E-04
2.014080E+03 8.615672E+03 6.859137E+02 1.129345E-02 4.407436E-04
2.014082E+03 8.615672E+03 7.095021E+02 1.169682E-02 4.730149E-04
2.014085E+03 8.615671E+03 7.317441E+02 1.208632E-02 5.044573E-04
2.014088E+03 8.665546E+03 7.554691E+02 1.773909E-02 5.534588E-04
2.014090E+03 8.712360E+03 7.793222E+02 2.323755E-02 6.177832E-04
2.014093E+03 8.667513E+03 8.030526E+02 2.146865E-02 6.774944E-04
2.014096E+03 8.681324E+03 8.268208E+02 2.372864E-02 7.435940E-04
2.014099E+03 8.636260E+03 8.504655E+02 2.492913E-02 8.131550E-04
2.014101E+03 8.631828E+03 8.740982E+02 2.579975E-02 8.852560E-04
2.014104E+03 8.647216E+03 8.977730E+02 2.651613E-02 9.594626E-04
2.014107E+03 8.670396E+03 9.215112E+02 2.711308E-02 1.035439E-03
2.014110E+03 8.698070E+03 9.453253E+02 2.763212E-02 1.112966E-03
2.014112E+03 8.728743E+03 9.692233E+02 2.809878E-02 1.191897E-03
2.014115E+03 8.761578E+03 9.932112E+02 2.852837E-02 1.272141E-03
2.014118E+03 8.796049E+03 1.017293E+03 2.893040E-02 1.353660E-03
2.014121E+03 8.831804E+03 1.041474E+03 2.931106E-02 1.436392E-03
2.014123E+03 8.868589E+03 1.065754E+03 2.967467E-02 1.520283E-03
2.014126E+03 8.906217E+03 1.090138E+03 3.002444E-02 1.605296E-03
2.014129E+03 8.944546E+03 1.114627E+03 3.036289E-02 1.691394E-03
2.014131E+03 8.983464E+03 1.139223E+03 3.069209E-02 1.778551E-03
2.014134E+03 9.022882E+03 1.163926E+03 3.101380E-02 1.866744E-03
2.014137E+03 9.062730E+03 1.188738E+03 3.132949E-02 1.955954E-03
2.014140E+03 9.102948E+03 1.213661E+03 3.164047E-02 2.046165E-03
2.014142E+03 9.143488E+03 1.238694E+03 3.194783E-02 2.137367E-03
2.014145E+03 9.184309E+03 1.263840E+03 3.225251E-02 2.229550E-03
2.014148E+03 9.225377E+03 1.289097E+03 3.255532E-02 2.322706E-03
2.014151E+03 9.266662E+03 1.314468E+03 3.285691E-02 2.416833E-03
2.014153E+03 9.308140E+03 1.339952E+03 3.315785E-02 2.511925E-03
2.014156E+03 9.273168E+03 1.365341E+03 3.093309E-02 2.601079E-03
2.014159E+03 9.264613E+03 1.390706E+03 3.025263E-02 2.688526E-03
2.014162E+03 9.280209E+03 1.416114E+03 3.058876E-02 2.777050E-03
2.014162E+03 9.280735E+03 1.416601E+03 3.061622E-02 2.778750E-03
2.014164E+03 9.121129E+03 1.441573E+03 2.953858E-02 2.862747E-03
2.014167E+03 9.019563E+03 1.466268E+03 2.835947E-02 2.942673E-03
2.014170E+03 8.818837E+03 1.490412E+03 2.611663E-02 3.015826E-03
2.014173E+03 8.619020E+03 1.514010E+03 2.498156E-02 3.085325E-03
2.014175E+03 8.420023E+03 1.537063E+03 2.459750E-02 3.153418E-03
2.014178E+03 8.221633E+03 1.559572E+03 2.476397E-02 3.221764E-03
2.014181E+03 8.024429E+03 1.581542E+03 2.533201E-02 3.291480E-03
2.014184E+03 7.828551E+03 1.602975E+03 2.620999E-02 3.363431E-03
2.014186E+03 7.634342E+03 1.623877E+03 2.735003E-02 3.438346E-03
2.014189E+03 7.442290E+03 1.644253E+03 2.873843E-02 3.517027E-03
2.014192E+03 7.253506E+03 1.664112E+03 3.039915E-02 3.600256E-03
2.014194E+03 7.069950E+03 1.683468E+03 3.255197E-02 3.689378E-03
2.014197E+03 6.896309E+03 1.702349E+03 3.577788E-02 3.787332E-03
2.014200E+03 6.758460E+03 1.720853E+03 4.161636E-02 3.901272E-03
2.014203E+03 6.641409E+03 1.739036E+03 4.962108E-02 4.037127E-03
2.014205E+03 6.483229E+03 1.756786E+03 4.892693E-02 4.171082E-03
2.014208E+03 6.270154E+03 1.773953E+03 3.705909E-02 4.272544E-03
2.014211E+03 6.057041E+03 1.790536E+03 2.864058E-02 4.350957E-03
2.014214E+03 5.843973E+03 1.806536E+03 2.269045E-02 4.413081E-03
2.014216E+03 5.630946E+03 1.821953E+03 1.852565E-02 4.463801E-03
2.014219E+03 5.417965E+03 1.836787E+03 1.565870E-02 4.506672E-03
2.014222E+03 5.205039E+03 1.851037E+03 1.376005E-02 4.544345E-03
2.014225E+03 4.992152E+03 1.864705E+03 1.260348E-02 4.578852E-03
2.014227E+03 4.779351E+03 1.877790E+03 1.204988E-02 4.611842E-03
2.014230E+03 4.566685E+03 1.890293E+03 1.202917E-02 4.644776E-03
2.014233E+03 4.354222E+03 1.902214E+03 1.254861E-02 4.679133E-03
2.014236E+03 4.142097E+03 1.913555E+03 1.374935E-02 4.716776E-03
2.014238E+03 3.930745E+03 1.924317E+03 1.618742E-02 4.761095E-03
2.014239E+03 3.889052E+03 1.926446E+03 1.720435E-02 4.770516E-03
2.014240E+03 3.837444E+03 1.929073E+03 1.854788E-02 4.783211E-03
2.014240E+03 3.771702E+03 1.932300E+03 2.117430E-02 4.801327E-03
2.014241E+03 3.690951E+03 1.936247E+03 2.960111E-02 4.832985E-03
2.014243E+03 3.587674E+03 1.941043E+03 2.863683E-02 4.871268E-03
2.014244E+03 3.457421E+03 1.946821E+03 2.738646E-02 4.917032E-03
2.014247E+03 3.294550E+03 1.953702E+03 2.587672E-02 4.971084E-03
2.014247E+03 3.293144E+03 1.953761E+03 2.620249E-02 4.971552E-03
2.014249E+03 3.302075E+03 1.960659E+03 2.619244E-02 5.026264E-03
2.014251E+03 3.309984E+03 1.969301E+03 2.626697E-02 5.094847E-03
2.014254E+03 3.317893E+03 1.978385E+03 2.642268E-02 5.167188E-03
2.014257E+03 3.325684E+03 1.987490E+03 2.664680E-02 5.240143E-03
2.014259E+03 3.333427E+03 1.996617E+03 2.692126E-02 5.313850E-03
2.014262E+03 3.341152E+03 2.005764E+03 2.724736E-02 5.388449E-03
2.014265E+03 3.348874E+03 2.014933E+03 2.763465E-02 5.464109E-03
2.014268E+03 3.356605E+03 2.024123E+03 2.809456E-02 5.541027E-03
2.014270E+03 3.364353E+03 2.033334E+03 2.864157E-02 5.619444E-03
2.014273E+03 3.372128E+03 2.042566E+03 2.929463E-02 5.699648E-03
2.014276E+03 3.379941E+03 2.051820E+03 3.007922E-02 5.782000E-03
2.014279E+03 3.387806E+03 2.061095E+03 3.103076E-02 5.866958E-03
2.014281E+03 3.395739E+03 2.070392E+03 3.220064E-02 5.955119E-03
2.014284E+03 3.403768E+03 2.079711E+03 3.366823E-02 6.047297E-03
2.014287E+03 3.411939E+03 2.089053E+03 3.556757E-02 6.144676E-03
2.014290E+03 3.420346E+03 2.098417E+03 3.816038E-02 6.249153E-03
2.014292E+03 3.429308E+03 2.107806E+03 4.212488E-02 6.364485E-03
2.014295E+03 3.439530E+03 2.117223E+03 5.086525E-02 6.503746E-03
2.014298E+03 3.449547E+03 2.126667E+03 6.187530E-02 6.673152E-03
2.014301E+03 3.457384E+03 2.136133E+03 6.214391E-02 6.843292E-03
2.014303E+03 3.465026E+03 2.145620E+03 6.236837E-02 7.014048E-03
2.014306E+03 3.472657E+03 2.155128E+03 6.260739E-02 7.185457E-03
2.014309E+03 3.480286E+03 2.164656E+03 6.286844E-02 7.357582E-03
2.014312E+03 3.487921E+03 2.174206E+03 6.315860E-02 7.530501E-03
2.014314E+03 3.495566E+03 2.183776E+03 6.348540E-02 7.704314E-03
2.014317E+03 3.503222E+03 2.193367E+03 6.385734E-02 7.879146E-03
2.014320E+03 3.510894E+03 2.202979E+03 6.428459E-02 8.055148E-03
2.014322E+03 3.518584E+03 2.212613E+03 6.477959E-02 8.232505E-03
2.014325E+03 3.526297E+03 2.222267E+03 6.535788E-02 8.411445E-03
2.014328E+03 3.534038E+03 2.231943E+03 6.603924E-02 8.592250E-03
2.014329E+03 3.536389E+03 2.234886E+03 6.690465E-02 8.647923E-03
2.014332E+03 3.461906E+03 2.244364E+03 6.373506E-02 8.822421E-03
2.014334E+03 3.392205E+03 2.253651E+03 6.333749E-02 8.995829E-03
2.014337E+03 3.323438E+03 2.262750E+03 6.404985E-02 9.171188E-03
2.014340E+03 3.255529E+03 2.271663E+03 6.671588E-02 9.353846E-03
2.014342E+03 3.190116E+03 2.280397E+03 7.854184E-02 9.568882E-03
2.014345E+03 3.124409E+03 2.288952E+03 8.657509E-02 9.805912E-03
2.014348E+03 3.055221E+03 2.297316E+03 8.394786E-02 1.003575E-02
2.014351E+03 2.985851E+03 2.305491E+03 8.124767E-02 1.025819E-02
2.014353E+03 2.916496E+03 2.313476E+03 7.862471E-02 1.047346E-02
2.014356E+03 2.847181E+03 2.321271E+03 7.611519E-02 1.068185E-02
2.014359E+03 2.777920E+03 2.328877E+03 7.375447E-02 1.088378E-02
2.014362E+03 2.708732E+03 2.336293E+03 7.159251E-02 1.107979E-02
2.014364E+03 2.639656E+03 2.343520E+03 6.971604E-02 1.127066E-02
2.014367E+03 2.570756E+03 2.350558E+03 6.827837E-02 1.145759E-02
2.014370E+03 2.502153E+03 2.357409E+03 6.759439E-02 1.164266E-02
2.014373E+03 2.434173E+03 2.364073E+03 6.857699E-02 1.183041E-02
2.014375E+03 2.368649E+03 2.370558E+03 8.195520E-02 1.205479E-02
2.014378E+03 2.302031E+03 2.376861E+03 8.145116E-02 1.227779E-02
2.014381E+03 2.232681E+03 2.382974E+03 7.772321E-02 1.249059E-02
2.014384E+03 2.163201E+03 2.388896E+03 7.385615E-02 1.269280E-02
2.014386E+03 2.093701E+03 2.394628E+03 6.998216E-02 1.288440E-02
2.014389E+03 2.024204E+03 2.400170E+03 6.613125E-02 1.306545E-02
2.014392E+03 1.954730E+03 2.405522E+03 6.232750E-02 1.323610E-02
2.014394E+03 1.885300E+03 2.410684E+03 5.859793E-02 1.339653E-02
2.014397E+03 1.815940E+03 2.415655E+03 5.497660E-02 1.354705E-02
2.014400E+03 1.746689E+03 2.420438E+03 5.151136E-02 1.368808E-02
2.014403E+03 1.677611E+03 2.425031E+03 4.827939E-02 1.382026E-02
2.014405E+03 1.608840E+03 2.429435E+03 4.543960E-02 1.394467E-02
2.014408E+03 1.541123E+03 2.433655E+03 4.386129E-02 1.406475E-02
2.014411E+03 1.474070E+03 2.437691E+03 4.310888E-02 1.418278E-02
2.014414E+03 1.404747E+03 2.441537E+03 3.979272E-02 1.429172E-02
2.014414E+03 1.403255E+03 2.441618E+03 4.019109E-02 1.429406E-02
2.014416E+03 1.505837E+03 2.445741E+03 5.452059E-02 1.444333E-02
2.014419E+03 1.600939E+03 2.450124E+03 6.124350E-02 1.461101E-02
2.014422E+03 1.694802E+03 2.454764E+03 6.664416E-02 1.479347E-02
2.014425E+03 1.788259E+03 2.459660E+03 7.164508E-02 1.498962E-02
2.014427E+03 1.881521E+03 2.464812E+03 7.647575E-02 1.519900E-02
2.014430E+03 1.974666E+03 2.470218E+03 8.121901E-02 1.542137E-02
2.014433E+03 2.067735E+03 2.475879E+03 8.591536E-02 1.565659E-02
2.014436E+03 2.160752E+03 2.481795E+03 9.058776E-02 1.590460E-02
2.014438E+03 2.253731E+03 2.487965E+03 9.524973E-02 1.616538E-02
2.014441E+03 2.346675E+03 2.494390E+03 9.989869E-02 1.643889E-02
2.014444E+03 2.439594E+03 2.501069E+03 1.045426E-01 1.672511E-02
2.014447E+03 2.532497E+03 2.508003E+03 1.091894E-01 1.702406E-02
2.014449E+03 2.625389E+03 2.515191E+03 1.138425E-01 1.733574E-02
2.014452E+03 2.718265E+03 2.522633E+03 1.184906E-01 1.766015E-02
2.014455E+03 2.811131E+03 2.530329E+03 1.231398E-01 1.799729E-02
2.014458E+03 2.903995E+03 2.538280E+03 1.277950E-01 1.834717E-02
2.014460E+03 2.996858E+03 2.546485E+03 1.324552E-01 1.870982E-02
2.014463E+03 3.089718E+03 2.554944E+03 1.371175E-01 1.908522E-02
2.014466E+03 3.182577E+03 2.563658E+03 1.417793E-01 1.947339E-02
2.014468E+03 3.275434E+03 2.572625E+03 1.464378E-01 1.987432E-02
2.014471E+03 3.368284E+03 2.581847E+03 1.510835E-01 2.028796E-02
2.014474E+03 3.461128E+03 2.591323E+03 1.557165E-01 2.071429E-02
2.014477E+03 3.553973E+03 2.601054E+03 1.603416E-01 2.115328E-02
2.014479E+03 3.646819E+03 2.611038E+03 1.649559E-01 2.160491E-02
2.014482E+03 3.739664E+03 2.621277E+03 1.695560E-01 2.206913E-02
2.014485E+03 3.832509E+03 2.631769E+03 1.741393E-01 2.254589E-02
2.014488E+03 3.925352E+03 2.642516E+03 1.787031E-01 2.303516E-02
2.014490E+03 4.018194E+03 2.653518E+03 1.832452E-01 2.353685E-02
2.014493E+03 4.111036E+03 2.664773E+03 1.877631E-01 2.405092E-02
2.014496E+03 4.203876E+03 2.676283E+03 1.922548E-01 2.457729E-02
2.014496E+03 4.205784E+03 2.676519E+03 1.942088E-01 2.458821E-02
2.014499E+03 4.301060E+03 2.688295E+03 2.041005E-01 2.514701E-02
2.014501E+03 4.393718E+03 2.700324E+03 2.136519E-01 2.573196E-02
2.014504E+03 4.485863E+03 2.712606E+03 2.227867E-01 2.634191E-02
2.014507E+03 4.577803E+03 2.725139E+03 2.316256E-01 2.697607E-02
2.014510E+03 4.669635E+03 2.737924E+03 2.401704E-01 2.763362E-02
2.014512E+03 4.761402E+03 2.750960E+03 2.484151E-01 2.831374E-02
2.014515E+03 4.853125E+03 2.764247E+03 2.563602E-01 2.901562E-02
2.014518E+03 4.944817E+03 2.777785E+03 2.640126E-01 2.973845E-02
2.014521E+03 5.036485E+03 2.791574E+03 2.713840E-01 3.048145E-02
2.014523E+03 5.128135E+03 2.805615E+03 2.784889E-01 3.124392E-02
2.014526E+03 5.219770E+03 2.819906E+03 2.853433E-01 3.202514E-02
2.014529E+03 5.311393E+03 2.834447E+03 2.919638E-01 3.282450E-02
2.014531E+03 5.403007E+03 2.849240E+03 2.983667E-01 3.364138E-02
2.014534E+03 5.494612E+03 2.864283E+03 3.045675E-01 3.447524E-02
2.014537E+03 5.586210E+03 2.879578E+03 3.105809E-01 3.532556E-02
2.014540E+03 5.677801E+03 2.895123E+03 3.164204E-01 3.619188E-02
2.014542E+03 5.769388E+03 2.910918E+03 3.220980E-01 3.707373E-02
2.014545E+03 5.861029E+03 2.926965E+03 3.277939E-01 3.797118E-02
2.014548E+03 5.953143E+03 2.943264E+03 3.347971E-01 3.888781E-02
2.014551E+03 6.044984E+03 2.959814E+03 3.416090E-01 3.982308E-02
2.014553E+03 6.136727E+03 2.976615E+03 3.482554E-01 4.077655E-02
2.014556E+03 6.228423E+03 2.993668E+03 3.547260E-01 4.174774E-02
2.014559E+03 6.320089E+03 3.010971E+03 3.610083E-01 4.273613E-02
2.014562E+03 6.411735E+03 3.028526E+03 3.670980E-01 4.374119E-02
2.014564E+03 6.503364E+03 3.046331E+03 3.729962E-01 4.476239E-02
2.014567E+03 6.594980E+03 3.064387E+03 3.787075E-01 4.579924E-02
2.014570E+03 6.686586E+03 3.082694E+03 3.842384E-01 4.685123E-02
2.014573E+03 6.778183E+03 3.101252E+03 3.895964E-01 4.791788E-02
2.014575E+03 6.869772E+03 3.120060E+03 3.947891E-01 4.899876E-02
2.014578E+03 6.961354E+03 3.139119E+03 3.998239E-01 5.009342E-02
2.014581E+03 7.052930E+03 3.158429E+03 4.047079E-01 5.120145E-02
2.014581E+03 7.054876E+03 3.158839E+03 4.077840E-01 5.122515E-02
2.014584E+03 7.210282E+03 3.178580E+03 4.277231E-01 5.239619E-02
2.014586E+03 7.362218E+03 3.198736E+03 4.468717E-01 5.361966E-02
2.014589E+03 7.513419E+03 3.219307E+03 4.640006E-01 5.489003E-02
2.014592E+03 7.664330E+03 3.240291E+03 4.792981E-01 5.620227E-02
2.014595E+03 7.815089E+03 3.261687E+03 4.929215E-01 5.755182E-02
2.014597E+03 7.965755E+03 3.283496E+03 5.050565E-01 5.893459E-02
2.014600E+03 8.116360E+03 3.305718E+03 5.158955E-01 6.034703E-02
2.014603E+03 8.266925E+03 3.328351E+03 5.256211E-01 6.178610E-02
2.014605E+03 8.417461E+03 3.351397E+03 5.343976E-01 6.324920E-02
2.014608E+03 8.564659E+03 3.374846E+03 4.996861E-01 6.461727E-02
2.014611E+03 8.713835E+03 3.398703E+03 4.891522E-01 6.595650E-02
2.014614E+03 8.861075E+03 3.422963E+03 4.840559E-01 6.728177E-02
2.014616E+03 9.010190E+03 3.447632E+03 4.837942E-01 6.860633E-02
2.014619E+03 9.159672E+03 3.472710E+03 4.849353E-01 6.993401E-02
2.014622E+03 9.309312E+03 3.498197E+03 4.865956E-01 7.126623E-02
2.014625E+03 9.459042E+03 3.524095E+03 4.884020E-01 7.260340E-02
2.014627E+03 9.608831E+03 3.550402E+03 4.901820E-01 7.394545E-02
2.014630E+03 9.758664E+03 3.577120E+03 4.918588E-01 7.529209E-02
2.014633E+03 9.908529E+03 3.604248E+03 4.934041E-01 7.664295E-02
2.014636E+03 1.005842E+04 3.631787E+03 4.948151E-01 7.799768E-02
2.014638E+03 1.020834E+04 3.659736E+03 4.961006E-01 7.935593E-02
2.014641E+03 1.035828E+04 3.688095E+03 4.972750E-01 8.071740E-02
2.014644E+03 1.050823E+04 3.716865E+03 4.999952E-01 8.208631E-02
2.014647E+03 1.065821E+04 3.746046E+03 5.009694E-01 8.345789E-02
2.014649E+03 1.080343E+04 3.775624E+03 4.536109E-01 8.469981E-02
2.014652E+03 1.095243E+04 3.805610E+03 4.521847E-01 8.593782E-02
2.014655E+03 1.109750E+04 3.835993E+03 4.417737E-01 8.714733E-02
2.014657E+03 1.124571E+04 3.866782E+03 4.348008E-01 8.833775E-02
2.014660E+03 1.139448E+04 3.897979E+03 4.293418E-01 8.951322E-02
2.014663E+03 1.154350E+04 3.929583E+03 4.248679E-01 9.067645E-02
2.014666E+03 1.169267E+04 3.961596E+03 4.210709E-01 9.182928E-02
2.014666E+03 1.169584E+04 3.962276E+03 4.222467E-01 9.185383E-02
2.014668E+03 1.183461E+04 3.994677E+03 4.279712E-01 9.302555E-02
2.014671E+03 1.197101E+04 4.027452E+03 4.326723E-01 9.421014E-02
2.014674E+03 1.210702E+04 4.060599E+03 4.352516E-01 9.540223E-02
2.014677E+03 1.224294E+04 4.094118E+03 4.361280E-01 9.659805E-02
2.014679E+03 1.237884E+04 4.128010E+03 4.357758E-01 9.779400E-02
2.014682E+03 1.250911E+04 4.162258E+03 3.935113E-01 9.887534E-02
2.014685E+03 1.264149E+04 4.196868E+03 3.852118E-01 9.993498E-02
2.014688E+03 1.277367E+04 4.231841E+03 3.770795E-01 1.009732E-01
2.014690E+03 1.290778E+04 4.267180E+03 3.704872E-01 1.019941E-01
2.014693E+03 1.304242E+04 4.302889E+03 3.645753E-01 1.029997E-01
2.014696E+03 1.317733E+04 4.338966E+03 3.590533E-01 1.039906E-01
2.014699E+03 1.331240E+04 4.375414E+03 3.538084E-01 1.049678E-01
2.014701E+03 1.344759E+04 4.412231E+03 3.488034E-01 1.059319E-01
2.014704E+03 1.358287E+04 4.449419E+03 3.440322E-01 1.068838E-01
2.014707E+03 1.371823E+04 4.486977E+03 3.394976E-01 1.078248E-01
2.014710E+03 1.384786E+04 4.524891E+03 3.063114E-01 1.086762E-01
2.014712E+03 1.398335E+04 4.563175E+03 3.147920E-01 1.095522E-01
2.014715E+03 1.411091E+04 4.601809E+03 3.014597E-01 1.103926E-01
2.014718E+03 1.424402E+04 4.640807E+03 2.914179E-01 1.112067E-01
2.014721E+03 1.437800E+04 4.680171E+03 2.840426E-01 1.120013E-01
2.014723E+03 1.451238E+04 4.719904E+03 2.784382E-01 1.127816E-01
2.014726E+03 1.464698E+04 4.760005E+03 2.739311E-01 1.135502E-01
2.014729E+03 1.478175E+04 4.800476E+03 2.700846E-01 1.143091E-01
2.014731E+03 1.491663E+04 4.841315E+03 2.666337E-01 1.150591E-01
2.014734E+03 1.505161E+04 4.882524E+03 2.634243E-01 1.158009E-01
2.014737E+03 1.503560E+04 4.923689E+03 2.161517E-01 1.164140E-01
2.014740E+03 1.506849E+04 4.964945E+03 2.047849E-01 1.169975E-01
2.014742E+03 1.497983E+04 5.005957E+03 1.859578E-01 1.175303E-01
2.014745E+03 1.502053E+04 5.047081E+03 1.720740E-01 1.180261E-01
2.014748E+03 1.510017E+04 5.088423E+03 1.620397E-01 1.184953E-01
2.014748E+03 1.510207E+04 5.089273E+03 1.617985E-01 1.185050E-01
2.014751E+03 1.503400E+04 5.130434E+03 1.523535E-01 1.189440E-01
2.014753E+03 1.497565E+04 5.171435E+03 1.447032E-01 1.193598E-01
2.014756E+03 1.491905E+04 5.212281E+03 1.383528E-01 1.197565E-01
2.014759E+03 1.486355E+04 5.252975E+03 1.329559E-01 1.201376E-01
2.014762E+03 1.480890E+04 5.293520E+03 1.282879E-01 1.205050E-01
2.014764E+03 1.475495E+04 5.333917E+03 1.242018E-01 1.208607E-01
2.014767E+03 1.470160E+04 5.374167E+03 1.205952E-01 1.212062E-01
2.014770E+03 1.464877E+04 5.414273E+03 1.173916E-01 1.215425E-01
2.014773E+03 1.459641E+04 5.454236E+03 1.145307E-01 1.218706E-01
2.014775E+03 1.454446E+04 5.494057E+03 1.119636E-01 1.221915E-01
2.014778E+03 1.449288E+04 5.533736E+03 1.096496E-01 1.225058E-01
2.014781E+03 1.444163E+04 5.573275E+03 1.075548E-01 1.228143E-01
2.014784E+03 1.439069E+04 5.612675E+03 1.056504E-01 1.231173E-01
2.014786E+03 1.434001E+04 5.651936E+03 1.039123E-01 1.234155E-01
2.014789E+03 1.428959E+04 5.691058E+03 1.023200E-01 1.237093E-01
2.014792E+03 1.423940E+04 5.730044E+03 1.008559E-01 1.239990E-01
2.014794E+03 1.418941E+04 5.768892E+03 9.950535E-02 1.242850E-01
2.014797E+03 1.413962E+04 5.807604E+03 9.825554E-02 1.245677E-01
2.014800E+03 1.409000E+04 5.846181E+03 9.709567E-02 1.248472E-01
2.014803E+03 1.404054E+04 5.884622E+03 9.601641E-02 1.251238E-01
2.014805E+03 1.399124E+04 5.922927E+03 9.500973E-02 1.253976E-01
2.014808E+03 1.394207E+04 5.961099E+03 9.406868E-02 1.256688E-01
2.014811E+03 1.380076E+04 5.998883E+03 8.897387E-02 1.259263E-01
2.014814E+03 1.368892E+04 6.036361E+03 8.691700E-02 1.261783E-01
2.014816E+03 1.360698E+04 6.073615E+03 8.651266E-02 1.264292E-01
2.014819E+03 1.353498E+04 6.110672E+03 8.624360E-02 1.266796E-01
2.014822E+03 1.346838E+04 6.147546E+03 8.590463E-02 1.269291E-01
2.014825E+03 1.340526E+04 6.184248E+03 8.548742E-02 1.271776E-01
2.014827E+03 1.328978E+04 6.220633E+03 8.376690E-02 1.274215E-01
2.014830E+03 1.315411E+04 6.256647E+03 8.121726E-02 1.276584E-01
2.014833E+03 1.306648E+04 6.292422E+03 7.986043E-02 1.278918E-01
2.014833E+03 1.306478E+04 6.293181E+03 7.979028E-02 1.278967E-01
2.014836E+03 1.296863E+04 6.328687E+03 7.906022E-02 1.281257E-01
2.014838E+03 1.289946E+04 6.364004E+03 7.874377E-02 1.283523E-01
2.014841E+03 1.287911E+04 6.399265E+03 7.864867E-02 1.285779E-01
2.014844E+03 1.276910E+04 6.434225E+03 7.574928E-02 1.287946E-01
2.014847E+03 1.266083E+04 6.468888E+03 7.302473E-02 1.290032E-01
2.014849E+03 1.255579E+04 6.503264E+03 7.086101E-02 1.292052E-01
2.014852E+03 1.245612E+04 6.537367E+03 6.929597E-02 1.294024E-01
2.014855E+03 1.236773E+04 6.571228E+03 6.832377E-02 1.295965E-01
2.014858E+03 1.234996E+04 6.605041E+03 6.897126E-02 1.297918E-01
2.014860E+03 1.223981E+04 6.638551E+03 6.807039E-02 1.299842E-01
2.014863E+03 1.211428E+04 6.671719E+03 6.701367E-02 1.301734E-01
2.014866E+03 1.198886E+04 6.704542E+03 6.608526E-02 1.303596E-01
2.014868E+03 1.186352E+04 6.737023E+03 6.522057E-02 1.305431E-01
2.014871E+03 1.173824E+04 6.769160E+03 6.437594E-02 1.307239E-01
2.014874E+03 1.161303E+04 6.800955E+03 6.352262E-02 1.309020E-01
2.014877E+03 1.148789E+04 6.832407E+03 6.264145E-02 1.310775E-01
2.014879E+03 1.136282E+04 6.863517E+03 6.171932E-02 1.312502E-01
2.014882E+03 1.123782E+04 6.894284E+03 6.074682E-02 1.314199E-01
2.014885E+03 1.111291E+04 6.924710E+03 5.971685E-02 1.315865E-01
2.014888E+03 1.098807E+04 6.954794E+03 5.862381E-02 1.317499E-01
2.014890E+03 1.086333E+04 6.984536E+03 5.746304E-02 1.319100E-01
2.014893E+03 1.073868E+04 7.013937E+03 5.623054E-02 1.320666E-01
2.014896E+03 1.061413E+04 7.042997E+03 5.492277E-02 1.322195E-01
2.014899E+03 1.048969E+04 7.071716E+03 5.353653E-02 1.323684E-01
2.014901E+03 1.036536E+04 7.100095E+03 5.210765E-02 1.325134E-01
2.014904E+03 1.024116E+04 7.128133E+03 5.067590E-02 1.326543E-01
2.014907E+03 1.011710E+04 7.155832E+03 4.924389E-02 1.327913E-01
2.014910E+03 9.993192E+03 7.183192E+03 4.781267E-02 1.329241E-01
2.014912E+03 9.869447E+03 7.210213E+03 4.641804E-02 1.330531E-01
2.014915E+03 9.745880E+03 7.236896E+03 4.501498E-02 1.331781E-01
2.014915E+03 9.743342E+03 7.237444E+03 4.495057E-02 1.331806E-01
2.014918E+03 9.639624E+03 7.263836E+03 4.381539E-02 1.333021E-01
2.014921E+03 9.538888E+03 7.289952E+03 4.301898E-02 1.334210E-01
2.014923E+03 9.439271E+03 7.315796E+03 4.243529E-02 1.335380E-01
2.014926E+03 9.341141E+03 7.341370E+03 4.196149E-02 1.336534E-01
2.014929E+03 9.244799E+03 7.366681E+03 4.152218E-02 1.337675E-01
2.014931E+03 9.150805E+03 7.391735E+03 4.106797E-02 1.338802E-01
2.014934E+03 9.060113E+03 7.416540E+03 4.057166E-02 1.339912E-01
2.014937E+03 8.974554E+03 7.441111E+03 4.003653E-02 1.341008E-01
2.014940E+03 8.898702E+03 7.465474E+03 3.954664E-02 1.342091E-01
2.014942E+03 8.865254E+03 7.489746E+03 4.009644E-02 1.343189E-01
2.014945E+03 8.810209E+03 7.513867E+03 3.870387E-02 1.344249E-01
2.014948E+03 8.734115E+03 7.537780E+03 3.587151E-02 1.345231E-01
2.014951E+03 8.705502E+03 7.561614E+03 3.388023E-02 1.346158E-01
2.014953E+03 8.592290E+03 7.585138E+03 2.800138E-02 1.346925E-01
2.014956E+03 8.478933E+03 7.608352E+03 2.413723E-02 1.347586E-01
2.014959E+03 8.365604E+03 7.631256E+03 2.165769E-02 1.348179E-01
2.014962E+03 8.252291E+03 7.653850E+03 2.014085E-02 1.348730E-01
2.014964E+03 8.138989E+03 7.676133E+03 1.930218E-02 1.349259E-01
2.014967E+03 8.025698E+03 7.698106E+03 1.894954E-02 1.349777E-01
2.014970E+03 7.912420E+03 7.719769E+03 1.895347E-02 1.350296E-01
2.014973E+03 7.799154E+03 7.741122E+03 1.922749E-02 1.350823E-01
2.014975E+03 7.685903E+03 7.762165E+03 1.971487E-02 1.351363E-01
2.014978E+03 7.572669E+03 7.782898E+03 2.037979E-02 1.351921E-01
2.014981E+03 7.459453E+03 7.803321E+03 2.120154E-02 1.352501E-01
2.014984E+03 7.346259E+03 7.823434E+03 2.217074E-02 1.353108E-01
2.014986E+03 7.233072E+03 7.843237E+03 2.328895E-02 1.353746E-01
2.014989E+03 7.119912E+03 7.862730E+03 2.456590E-02 1.354418E-01
2.014992E+03 7.006794E+03 7.881914E+03 2.601634E-02 1.355130E-01
2.014994E+03 6.893725E+03 7.900788E+03 2.766349E-02 1.355888E-01
2.014997E+03 6.780712E+03 7.919352E+03 2.954252E-02 1.356697E-01
2.015000E+03 6.667769E+03 7.937608E+03 3.170504E-02 1.357565E-01
2.015000E+03 6.665394E+03 7.937995E+03 3.195534E-02 1.357583E-01
2.015003E+03 6.597010E+03 7.956057E+03 3.488243E-02 1.358538E-01
2.015005E+03 6.529745E+03 7.973934E+03 3.887764E-02 1.359603E-01
2.015008E+03 6.462928E+03 7.991629E+03 4.405235E-02 1.360809E-01
2.015011E+03 6.397268E+03 8.009143E+03 5.131423E-02 1.362214E-01
2.015014E+03 6.332169E+03 8.026480E+03 6.339958E-02 1.363950E-01
2.015016E+03 6.267884E+03 8.043641E+03 1.011140E-01 1.366718E-01
2.015019E+03 6.200606E+03 8.060617E+03 9.917865E-02 1.369433E-01
2.015022E+03 6.132510E+03 8.077407E+03 9.722696E-02 1.372095E-01
2.015025E+03 6.064413E+03 8.094010E+03 9.538971E-02 1.374707E-01
2.015027E+03 5.996327E+03 8.110427E+03 9.367648E-02 1.377272E-01
2.015030E+03 5.928254E+03 8.126658E+03 9.209498E-02 1.379793E-01
2.015033E+03 5.860194E+03 8.142702E+03 9.065400E-02 1.382275E-01
2.015036E+03 5.792150E+03 8.158560E+03 8.936406E-02 1.384722E-01
2.015038E+03 5.724122E+03 8.174232E+03 8.823799E-02 1.387137E-01
2.015041E+03 5.656113E+03 8.189718E+03 8.729150E-02 1.389527E-01
2.015044E+03 5.588128E+03 8.205017E+03 8.654411E-02 1.391897E-01
2.015047E+03 5.520169E+03 8.220131E+03 8.602032E-02 1.394252E-01
2.015049E+03 5.452244E+03 8.235058E+03 8.575148E-02 1.396600E-01
2.015052E+03 5.384359E+03 8.249800E+03 8.577857E-02 1.398948E-01